 &FCI NORB=20,NELEC= 13,MS2=  1
  ORBSYM=1,1,1,1,1,1,1,1,4,4,3,3,1,1,4,4,3,3,1,1,
  ISYM=1 UHF=.TRUE.
  SYML=-20,-20,-20,-20,-20,-20,-20,-20,1,1,1,1,-20,-20,1,1,1,1,-20,-20,
  SYMLZ=0,0,0,0,0,0,0,0,-1,-1,1,1,0,0,-1,-1,1,1,0,0,
 &END
 -0.00069286010836753  3  1  1  1
     0.44342102589717  3  3  1  1
  -0.0054213114522982  3  5  1  1
  -0.0014853560731705  3  7  1  1
    0.012992242018912  3 13  1  1
   -0.012085062759792  3 19  1  1
  7.1321768374895e-07  3  1  1  3
  0.00085322655789003  3  3  1  3
  9.1296683714018e-05  3  5  1  3
  7.4793055603805e-05  3  7  1  3
  8.5871031440446e-06  3 13  1  3
  0.00013581467118169  3 19  1  3
 -5.1666882168204e-05  3  1  1  5
  -0.0031016838762464  3  3  1  5
  9.1713481350349e-05  3  5  1  5
  3.1879145681089e-05  3  7  1  5
  -0.0001786570033258  3 13  1  5
  0.00018600422398847  3 19  1  5
  4.5500955105352e-05  3  1  1  7
  -0.0084518266491266  3  3  1  7
   0.0002227549497463  3  5  1  7
  4.3564000562281e-05  3  7  1  7
  -0.0004834086996477  3 13  1  7
  0.00045346807384918  3 19  1  7
  0.00025092507171908  3  9  1  9
  0.00027519561133882  3 15  1  9
   0.0002509250717194  3 11  1 11
  0.00027519561137167  3 17  1 11
 -2.1577123378634e-06  3  1  1 13
   0.0053423423501523  3  3  1 13
  -0.0001511959126645  3  5  1 13
 -3.1931133583486e-05  3  7  1 13
  0.00034339894492258  3 13  1 13
 -0.00032996693344697  3 19  1 13
 -0.00028082156889896  3  9  1 15
 -0.00031640929656501  3 15  1 15
 -0.00028082156886611  3 11  1 17
 -0.00031640929656534  3 17  1 17
  2.5350970080136e-05  3  1  1 19
    0.011556916767793  3  3  1 19
 -0.00021083568531209  3  5  1 19
 -1.5106255473536e-05  3  7  1 19
  0.00060131251058584  3 13  1 19
 -0.00049722934268335  3 19  1 19
     0.31839618213336  5  1  1  1
  -0.0054213114522982  5  3  1  1
     0.82553853629849  5  5  1  1
    -0.13307163482773  5  7  1  1
   -0.099613339878338  5 13  1  1
    -0.25182031384651  5 19  1  1
 -5.1666882168204e-05  5  1  1  3
  9.1296683714018e-05  5  3  1  3
 -6.8027086082813e-05  5  5  1  3
  5.5038314680826e-05  5  7  1  3
  3.5037950695229e-05  5 13  1  3
   5.855352004713e-05  5 19  1  3
    0.039904676999924  5  1  1  5
  9.1713481350349e-05  5  3  1  5
   0.0040742082515178  5  5  1  5
  -0.0090788842973342  5  7  1  5
   0.0017931655889882  5 13  1  5
  -0.0042216974583576  5 19  1  5
   -0.025641102270815  5  1  1  7
   0.0002227549497463  5  3  1  7
   -0.018757538881302  5  5  1  7
  -0.0054083762884669  5  7  1  7
   0.0075872917742247  5 13  1  7
    0.012944612874504  5 19  1  7
   -0.013827508394437  5  9  1  9
    0.010336479164667  5 15  1  9
   -0.013827508395888  5 11  1 11
    0.010336479164512  5 17  1 11
  -0.0033270920508847  5  1  1 13
  -0.0001511959126645  5  3  1 13
   0.0077380772522715  5  5  1 13
   0.0062155243400463  5  7  1 13
  -0.0044741781271898  5 13  1 13
  -0.0047865414276811  5 19  1 13
    0.014718262237336  5  9  1 15
   -0.011157464862654  5 15  1 15
    0.014718262237182  5 11  1 17
   -0.011157464861204  5 17  1 17
   -0.030402723988358  5  1  1 19
 -0.00021083568531208  5  3  1 19
    0.010589149842871  5  5  1 19
    0.015486933624912  5  7  1 19
  -0.0084786316581518  5 13  1 19
  -0.0065308891624633  5 19  1 19
 -5.1666882168204e-05  5  1  3  1
  9.1296683714018e-05  5  3  3  1
 -6.8027086082813e-05  5  5  3  1
  5.5038314680826e-05  5  7  3  1
  3.5037950695229e-05  5 13  3  1
   5.855352004713e-05  5 19  3  1
  -0.0031016838762464  5  1  3  3
     0.20962517170573  5  3  3  3
      0.6393536072019  5  5  3  3
      0.1833254787734  5  7  3  3
  -0.0053744734690804  5 13  3  3
     0.15538537760472  5 19  3  3
  9.1713481350351e-05  5  1  3  5
    0.021155240953842  5  3  3  5
  -0.0031863112862791  5  5  3  5
   0.0019741765598229  5  7  3  5
   0.0052649501006955  5 13  3  5
   0.0034541786196865  5 19  3  5
   3.187914568109e-05  5  1  3  7
    0.019500598664924  5  3  3  7
   0.0017116405121772  5  5  3  7
   0.0028584757594632  5  7  3  7
   0.0026894358930863  5 13  3  7
   0.0037684239535175  5 19  3  7
  -0.0092766839007315  5  9  3  9
  -0.0056882712792675  5 15  3  9
   -0.009276683899768  5 11  3 11
  -0.0056882712793822  5 17  3 11
  -0.0001786570033258  5  1  3 13
    0.014067663630667  5  3  3 13
    0.020586699209899  5  5  3 13
   0.0067994080935856  5  7  3 13
  -0.0065598264559297  5 13  3 13
    0.007052199275005  5 19  3 13
    -0.01095200198337  5  9  3 15
  -0.0072964517818454  5 15  3 15
   -0.010952001983485  5 11  3 17
  -0.0072964517828089  5 17  3 17
  0.00018600422398846  5  1  3 19
    0.022364651765382  5  3  3 19
   -0.014740248939454  5  5  3 19
  -0.0018193713643862  5  7  3 19
    0.010016578642752  5 13  3 19
  -0.0016196598865127  5 19  3 19
    -0.23944995456907  7  1  1  1
  -0.0014853560731705  7  3  1  1
    -0.13307163482773  7  5  1  1
     0.83329373262985  7  7  1  1
    -0.18200472006092  7 13  1  1
   -0.091243410206195  7 19  1  1
  4.5500955105352e-05  7  1  1  3
  7.4793055603805e-05  7  3  1  3
  5.5038314680827e-05  7  5  1  3
 -8.3516130031189e-05  7  7  1  3
  8.6034605067475e-05  7 13  1  3
  2.0475917170695e-05  7 19  1  3
   -0.025641102270815  7  1  1  5
  3.1879145681089e-05  7  3  1  5
  -0.0090788842973341  7  5  1  5
    0.013895228760824  7  7  1  5
  -0.0041328668590073  7 13  1  5
  -0.0032656338933051  7 19  1  5
    0.030134389182633  7  1  1  7
  4.3564000562282e-05  7  3  1  7
  -0.0054083762884669  7  5  1  7
   0.0056106106235661  7  7  1  7
  -0.0030087850554697  7 13  1  7
  -0.0057970930952842  7 19  1  7
   0.0076048633977959  7  9  1  9
   -0.010481255127079  7 15  1  9
   0.0076048633988933  7 11  1 11
   -0.010481255127308  7 17  1 11
  -0.0046304538844694  7  1  1 13
 -3.1931133583484e-05  7  3  1 13
   0.0062155243400463  7  5  1 13
  -0.0080773231592212  7  7  1 13
   0.0029980297059995  7 13  1 13
   0.0040986168437492  7 19  1 13
   -0.008474002950232  7  9  1 15
    0.011567608822692  7 15  1 15
  -0.0084740029504614  7 11  1 17
    0.011567608821595  7 17  1 17
   0.0065614433088311  7  1  1 19
 -1.5106255473534e-05  7  3  1 19
    0.015486933624912  7  5  1 19
   -0.022317581784206  7  7  1 19
   0.0079774257808627  7 13  1 19
   0.0091318007048086  7 19  1 19
  4.5500955105352e-05  7  1  3  1
  7.4793055603805e-05  7  3  3  1
  5.5038314680826e-05  7  5  3  1
 -8.3516130031189e-05  7  7  3  1
  8.6034605067475e-05  7 13  3  1
  2.0475917170696e-05  7 19  3  1
  -0.0084518266491265  7  1  3  3
     0.20256288065973  7  3  3  3
      0.1833254787734  7  5  3  3
     0.48051688201565  7  7  3  3
     0.11767487420388  7 13  3  3
     0.14081156197839  7 19  3  3
   0.0002227549497463  7  1  3  5
    0.019500598664924  7  3  3  5
   0.0019741765598229  7  5  3  5
  0.00043392283724113  7  7  3  5
   0.0069209541777175  7 13  3  5
   0.0010745240301656  7 19  3  5
  4.3564000562281e-05  7  1  3  7
    0.018647822187341  7  3  3  7
   0.0028584757594632  7  5  3  7
   0.0021510236092535  7  7  3  7
   0.0038968549649129  7 13  3  7
    0.002477452144008  7 19  3  7
  -0.0061026652953627  7  9  3  9
  -0.0079836466187464  7 15  3  9
   -0.006102665294459  7 11  3 11
  -0.0079836466185228  7 17  3 11
  -0.0004834086996477  7  1  3 13
    0.016571600827076  7  3  3 13
   0.0067994080935856  7  5  3 13
    0.009996355446179  7  7  3 13
  -0.0073280969749221  7 13  3 13
   0.0087302329903516  7 19  3 13
  -0.0076254168468448  7  9  3 15
  -0.0099647647348609  7 15  3 15
  -0.0076254168466212  7 11  3 17
  -0.0099647647357646  7 17  3 17
  0.00045346807384917  7  1  3 19
    0.018150006493007  7  3  3 19
  -0.0018193713643862  7  5  3 19
  -0.0045369908409759  7  7  3 19
    0.012888857899913  7 13  3 19
  -0.0048437547545606  7 19  3 19
   -0.025641102270815  7  1  5  1
  3.1879145681089e-05  7  3  5  1
  -0.0090788842973341  7  5  5  1
    0.013895228760824  7  7  5  1
  -0.0041328668590073  7 13  5  1
  -0.0032656338933051  7 19  5  1
   0.0002227549497463  7  1  5  3
    0.019500598664924  7  3  5  3
   0.0019741765598229  7  5  5  3
  0.00043392283724109  7  7  5  3
   0.0069209541777175  7 13  5  3
   0.0010745240301656  7 19  5  3
   -0.018757538881302  7  1  5  5
   0.0017116405121772  7  3  5  5
    0.038192218888062  7  5  5  5
     0.53927397808816  7  7  5  5
   -0.056493537911028  7 13  5  5
    0.028807369223455  7 19  5  5
  -0.0054083762884669  7  1  5  7
   0.0028584757594632  7  3  5  7
    0.081915342750656  7  5  5  7
   -0.072602038878641  7  7  5  7
    0.050586641092085  7 13  5  7
    0.053314926025906  7 19  5  7
  -0.0056710809995088  7  9  5  9
    0.062347919660525  7 15  5  9
  -0.0056710810052744  7 11  5 11
    0.062347919661065  7 17  5 11
   0.0075872917742247  7  1  5 13
   0.0026894358930863  7  3  5 13
   -0.016277237683796  7  5  5 13
   -0.021125693320627  7  7  5 13
    0.022122386350008  7 13  5 13
  -0.0093704285142925  7 19  5 13
     0.03723581982897  7  9  5 15
   -0.014998043381385  7 15  5 15
     0.03723581982951  7 11  5 17
   -0.014998043375619  7 17  5 17
    0.012944612874504  7  1  5 19
   0.0037684239535174  7  3  5 19
     0.03821357519509  7  5  5 19
   -0.039945342793742  7  7  5 19
    0.034314477724963  7 13  5 19
    0.032131890967983  7 19  5 19
      0.6931013931813  9  9  1  1
    -0.29456304957252  9 15  1  1
 -3.9110019623585e-05  9  9  1  3
  0.00010730845979735  9 15  1  3
   0.0028271244507228  9  9  1  5
  -0.0060717014188432  9 15  1  5
  -0.0068557045079284  9  9  1  7
  0.00014043519209439  9 15  1  7
    0.010481855523963  9  1  1  9
  0.00025092507171908  9  3  1  9
   -0.013827508394437  9  5  1  9
   0.0076048633977959  9  7  1  9
  0.00012904064076133  9 13  1  9
   0.0063163159178781  9 19  1  9
   0.0023643552388938  9  9  1 13
   0.0022174801998271  9 15  1 13
   -0.011711632995489  9  1  1 15
 -0.00028082156889896  9  3  1 15
    0.014718262237336  9  5  1 15
   -0.008474002950232  9  7  1 15
  5.7440746108952e-05  9 13  1 15
  -0.0066771977059162  9 19  1 15
   0.0028204474014801  9  9  1 19
   0.0066167359999789  9 15  1 19
 -3.9110019623586e-05  9  9  3  1
  0.00010730845979735  9 15  3  1
      0.5996732542165  9  9  3  3
     0.22752280530564  9 15  3  3
   3.719432133184e-05  9  9  3  5
   0.0057878454437604  9 15  3  5
   0.0017576929805346  9  9  3  7
    0.003833647676217  9 15  3  7
  0.00025092507171908  9  1  3  9
   0.0084143864768175  9  3  3  9
  -0.0092766839007315  9  5  3  9
  -0.0061026652953627  9  7  3  9
  -0.0057203821366934  9 13  3  9
  -0.0056081875057061  9 19  3  9
   0.0090890181588889  9  9  3 13
  -0.0020105662115004  9 15  3 13
  0.00027519561133882  9  1  3 15
    0.010988162962782  9  3  3 15
    -0.01095200198337  9  5  3 15
  -0.0076254168468448  9  7  3 15
  -0.0076378464798421  9 13  3 15
  -0.0069862806350028  9 19  3 15
  -0.0052800171982909  9  9  3 19
    0.006567949261041  9 15  3 19
   0.0028271244507228  9  9  5  1
  -0.0060717014188432  9 15  5  1
  3.7194321331828e-05  9  9  5  3
   0.0057878454437604  9 15  5  3
     0.57943218074092  9  9  5  5
   -0.060737543306499  9 15  5  5
    0.014177706871711  9  9  5  7
    0.089988893236526  9 15  5  7
   -0.013827508394437  9  1  5  9
  -0.0092766839007315  9  3  5  9
     0.10033231670939  9  5  5  9
  -0.0056710809995088  9  7  5  9
    0.008350439402144  9 13  5  9
  -0.0053152515755577  9 19  5  9
   -0.041015575255557  9  9  5 13
    0.025968569376413  9 15  5 13
    0.010336479164667  9  1  5 15
  -0.0056882712792675  9  3  5 15
   -0.023720010719931  9  5  5 15
     0.03723581982897  9  7  5 15
    0.012254270138124  9 13  5 15
    0.031764631113016  9 19  5 15
   -0.033163337121791  9  9  5 19
    0.092385422186285  9 15  5 19
  -0.0068557045079283  9  9  7  1
   0.0001404351920944  9 15  7  1
   0.0017576929805346  9  9  7  3
    0.003833647676217  9 15  7  3
    0.014177706871711  9  9  7  5
    0.089988893236526  9 15  7  5
     0.50885340174621  9  9  7  7
    -0.11648795902208  9 15  7  7
   0.0076048633977959  9  1  7  9
  -0.0061026652953627  9  3  7  9
  -0.0056710809995088  9  5  7  9
    0.044309631110107  9  7  7  9
   0.0065175245487873  9 13  7  9
    0.018774642560426  9 19  7  9
   -0.028932954472322  9  9  7 13
    0.092563438121927  9 15  7 13
   -0.010481255127079  9  1  7 15
  -0.0079836466187464  9  3  7 15
    0.062347919660525  9  5  7 15
    -0.01748961272138  9  7  7 15
    0.022576910943221  9 13  7 15
   0.0052767681334966  9 19  7 15
    0.019832339416964  9  9  7 19
    0.056237341688127  9 15  7 19
      0.6931013932154 11 11  1  1
      -0.294563049572 11 17  1  1
 -3.9110019636011e-05 11 11  1  3
  0.00010730845979612 11 17  1  3
   0.0028271244514258 11 11  1  5
  -0.0060717014189487 11 17  1  5
  -0.0068557045079446 11 11  1  7
  0.00014043519201804 11 17  1  7
     0.01048185552532 11  1  1 11
   0.0002509250717194 11  3  1 11
   -0.013827508395888 11  5  1 11
   0.0076048633988933 11  7  1 11
  0.00012904064076802 11 13  1 11
   0.0063163159187115 11 19  1 11
    0.002364355238637 11 11  1 13
   0.0022174801999054 11 17  1 13
   -0.011711632995641 11  1  1 17
 -0.00028082156886611 11  3  1 17
    0.014718262237182 11  5  1 17
  -0.0084740029504614 11  7  1 17
  5.7440746110219e-05 11 13  1 17
  -0.0066771977060248 11 19  1 17
   0.0028204474007139 11 11  1 19
   0.0066167360001576 11 17  1 19
 -3.9110019636012e-05 11 11  3  1
  0.00010730845979612 11 17  3  1
     0.59967325419015 11 11  3  3
     0.22752280530156 11 17  3  3
  3.7194320661609e-05 11 11  3  5
   0.0057878454435469 11 17  3  5
   0.0017576929800906 11 11  3  7
   0.0038336476760928 11 17  3  7
   0.0002509250717194 11  1  3 11
   0.0084143864755451 11  3  3 11
   -0.009276683899768 11  5  3 11
   -0.006102665294459 11  7  3 11
  -0.0057203821357423 11 13  3 11
   -0.005608187504857 11 19  3 11
   0.0090890181591217 11 11  3 13
  -0.0020105662113399 11 17  3 13
  0.00027519561137167 11  1  3 17
    0.010988162962436 11  3  3 17
   -0.010952001983485 11  5  3 17
  -0.0076254168466212 11  7  3 17
  -0.0076378464795144 11 13  3 17
  -0.0069862806347955 11 19  3 17
  -0.0052800171990515 11 11  3 19
   0.0065679492607122 11 17  3 19
   0.0028271244514259 11 11  5  1
  -0.0060717014189487 11 17  5  1
  3.7194320661632e-05 11 11  5  3
   0.0057878454435469 11 17  5  3
     0.57943218074795 11 11  5  5
   -0.060737543304952 11 17  5  5
    0.014177706861291 11 11  5  7
    0.089988893236432 11 17  5  7
   -0.013827508395888 11  1  5 11
   -0.009276683899768 11  3  5 11
     0.10033231671213 11  5  5 11
  -0.0056710810052744 11  7  5 11
   0.0083504394000567 11 13  5 11
  -0.0053152515807153 11 19  5 11
   -0.041015575258564 11 11  5 13
     0.02596856937539 11 17  5 13
    0.010336479164512 11  1  5 17
  -0.0056882712793822 11  3  5 17
   -0.023720010716714 11  5  5 17
     0.03723581982951 11  7  5 17
    0.012254270137601 11 13  5 17
    0.031764631112995 11 19  5 17
   -0.033163337132488 11 11  5 19
    0.092385422185351 11 17  5 19
  -0.0068557045079446 11 11  7  1
  0.00014043519201803 11 17  7  1
   0.0017576929800906 11 11  7  3
   0.0038336476760928 11 17  7  3
    0.014177706861291 11 11  7  5
    0.089988893236432 11 17  7  5
     0.50885340175969 11 11  7  7
    -0.11648795902209 11 17  7  7
   0.0076048633988933 11  1  7 11
   -0.006102665294459 11  3  7 11
  -0.0056710810052744 11  5  7 11
    0.044309631112132 11  7  7 11
   0.0065175245460099 11 13  7 11
      0.0187746425596 11 19  7 11
   -0.028932954483041 11 11  7 13
    0.092563438120824 11 17  7 13
   -0.010481255127308 11  1  7 17
  -0.0079836466185228 11  3  7 17
    0.062347919661065 11  5  7 17
   -0.017489612722409 11  7  7 17
    0.022576910942497 11 13  7 17
   0.0052767681328823 11 19  7 17
    0.019832339410452 11 11  7 19
    0.056237341688164 11 17  7 19
      0.5094911498722 11 11  9  9
   -0.032718436750584 11 17  9  9
    0.022636931153715 11  9  9 11
  -0.0027257482002799 11 15  9 11
   -0.032718436767282 11 11  9 15
      0.1421193642239 11 17  9 15
  -0.0027257481977367 11  9  9 17
     0.01779161097445 11 15  9 17
  -0.0084316965705421 13  1  1  1
    0.012992242018912 13  3  1  1
   -0.099613339878338 13  5  1  1
    -0.18200472006092 13  7  1  1
     0.42921915557201 13 13  1  1
      0.1748893411144 13 19  1  1
 -2.1577123378634e-06 13  1  1  3
  8.5871031440446e-06 13  3  1  3
  3.5037950695229e-05 13  5  1  3
  8.6034605067475e-05 13  7  1  3
   0.0001308095634152 13 13  1  3
 -8.1993200817665e-05 13 19  1  3
  -0.0033270920508847 13  1  1  5
 -0.00017865700332579 13  3  1  5
   0.0017931655889882 13  5  1  5
  -0.0041328668590073 13  7  1  5
 -0.00014702065938248 13 13  1  5
   0.0029943127780488 13 19  1  5
  -0.0046304538844693 13  1  1  7
  -0.0004834086996477 13  3  1  7
   0.0075872917742247 13  5  1  7
  -0.0030087850554697 13  7  1  7
  -0.0053842291783681 13 13  1  7
  -0.0031183345057912 13 19  1  7
  0.00012904064076133 13  9  1  9
 -0.00017307678060446 13 15  1  9
  0.00012904064076802 13 11  1 11
 -0.00017307678060319 13 17  1 11
   0.0036329033350269 13  1  1 13
  0.00034339894492258 13  3  1 13
  -0.0044741781271898 13  5  1 13
   0.0029980297059995 13  7  1 13
   0.0025599240501467 13 13  1 13
  0.00054160769347422 13 19  1 13
  5.7440746108951e-05 13  9  1 15
  0.00010713041085067 13 15  1 15
  5.7440746110219e-05 13 11  1 17
  0.00010713041084398 13 17  1 17
   0.0089732809098553 13  1  1 19
  0.00060131251058584 13  3  1 19
  -0.0084786316581518 13  5  1 19
   0.0079774257808627 13  7  1 19
   0.0047805653112026 13 13  1 19
 -0.00097577895402099 13 19  1 19
 -2.1577123378634e-06 13  1  3  1
  8.5871031440446e-06 13  3  3  1
  3.5037950695229e-05 13  5  3  1
  8.6034605067475e-05 13  7  3  1
   0.0001308095634152 13 13  3  1
 -8.1993200817665e-05 13 19  3  1
   0.0053423423501523 13  1  3  3
     0.19724063752149 13  3  3  3
  -0.0053744734690805 13  5  3  3
     0.11767487420388 13  7  3  3
     0.79276714402679 13 13  3  3
    -0.12310228912992 13 19  3  3
  -0.0001511959126645 13  1  3  5
    0.014067663630667 13  3  3  5
   0.0052649501006955 13  5  3  5
   0.0069209541777175 13  7  3  5
    0.013194850792459 13 13  3  5
  -0.0046161627864801 13 19  3  5
 -3.1931133583485e-05 13  1  3  7
    0.016571600827076 13  3  3  7
   0.0026894358930863 13  5  3  7
   0.0038968549649129 13  7  3  7
   0.0083556827329178 13 13  3  7
  -0.0022967722009687 13 19  3  7
  -0.0057203821366934 13  9  3  9
  -0.0087900161259974 13 15  3  9
  -0.0057203821357423 13 11  3 11
  -0.0087900161256697 13 17  3 11
  0.00034339894492258 13  1  3 13
    0.028909408196203 13  3  3 13
  -0.0065598264559297 13  5  3 13
  -0.0073280969749221 13  7  3 13
  -0.0086692912607005 13 13  3 13
   0.0059648013064611 13 19  3 13
  -0.0076378464798421 13  9  3 15
   -0.011380294256724 13 15  3 15
  -0.0076378464795144 13 11  3 17
   -0.011380294257675 13 17  3 17
 -0.00032996693344697 13  1  3 19
   0.0011783928380181 13  3  3 19
    0.010016578642752 13  5  3 19
    0.012888857899913 13  7  3 19
    0.023231419250434 13 13  3 19
  -0.0095422441076853 13 19  3 19
  -0.0033270920508847 13  1  5  1
 -0.00017865700332579 13  3  5  1
   0.0017931655889882 13  5  5  1
  -0.0041328668590073 13  7  5  1
 -0.00014702065938241 13 13  5  1
   0.0029943127780488 13 19  5  1
  -0.0001511959126645 13  1  5  3
    0.014067663630667 13  3  5  3
   0.0052649501006955 13  5  5  3
   0.0069209541777175 13  7  5  3
    0.013194850792459 13 13  5  3
  -0.0046161627864801 13 19  5  3
   0.0077380772522715 13  1  5  5
    0.020586699209899 13  3  5  5
   -0.087269598723801 13  5  5  5
   -0.056493537911028 13  7  5  5
     0.45496620212388 13 13  5  5
    0.051517905992666 13 19  5  5
   0.0062155243400463 13  1  5  7
   0.0067994080935855 13  3  5  7
   -0.016277237683796 13  5  5  7
    0.050586641092085 13  7  5  7
    0.071383776177081 13 13  5  7
   -0.033414158527636 13 19  5  7
    0.008350439402144 13  9  5  9
    0.023798122046201 13 15  5  9
   0.0083504394000567 13 11  5 11
    0.023798122045678 13 17  5 11
  -0.0044741781271898 13  1  5 13
  -0.0065598264559297 13  3  5 13
    0.037409850441272 13  5  5 13
    0.022122386350008 13  7  5 13
   0.0064802665832141 13 13  5 13
   -0.020024115262864 13 19  5 13
    0.012254270138124 13  9  5 15
    0.017386953068878 13 15  5 15
    0.012254270137601 13 11  5 17
    0.017386953070965 13 17  5 17
  -0.0047865414276811 13  1  5 19
    0.007052199275005 13  3  5 19
    0.027527885847533 13  5  5 19
    0.034314477724963 13  7  5 19
    0.028475496235441 13 13  5 19
   -0.045679194612846 13 19  5 19
  -0.0046304538844693 13  1  7  1
  -0.0004834086996477 13  3  7  1
   0.0075872917742247 13  5  7  1
  -0.0030087850554697 13  7  7  1
  -0.0053842291783682 13 13  7  1
  -0.0031183345057912 13 19  7  1
 -3.1931133583484e-05 13  1  7  3
    0.016571600827076 13  3  7  3
   0.0026894358930863 13  5  7  3
   0.0038968549649129 13  7  7  3
   0.0083556827329178 13 13  7  3
  -0.0022967722009687 13 19  7  3
   0.0062155243400463 13  1  7  5
   0.0067994080935855 13  3  7  5
   -0.016277237683796 13  5  7  5
    0.050586641092085 13  7  7  5
    0.071383776177081 13 13  7  5
   -0.033414158527636 13 19  7  5
  -0.0080773231592212 13  1  7  7
   0.0099963554461789 13  3  7  7
   -0.021125693320627 13  5  7  7
    -0.10944559117234 13  7  7  7
     0.39782458501995 13 13  7  7
    0.065789375210269 13 19  7  7
   0.0065175245487873 13  9  7  9
    0.025392940299411 13 15  7  9
   0.0065175245460099 13 11  7 11
    0.025392940298686 13 17  7 11
   0.0029980297059995 13  1  7 13
  -0.0073280969749221 13  3  7 13
    0.022122386350008 13  5  7 13
    0.081564881550824 13  7  7 13
    0.084667166623212 13 13  7 13
   -0.058408579653696 13 19  7 13
    0.022576910943221 13  9  7 15
    0.019033798836577 13 15  7 15
    0.022576910942497 13 11  7 17
    0.019033798839354 13 17  7 17
   0.0040986168437492 13  1  7 19
   0.0087302329903516 13  3  7 19
  -0.0093704285142925 13  5  7 19
    0.039053560135095 13  7  7 19
    0.025385796696787 13 13  7 19
   -0.023739694292805 13 19  7 19
  0.00012904064076133 13  9  9  1
 -0.00017307678060446 13 15  9  1
  -0.0057203821366934 13  9  9  3
  -0.0087900161259974 13 15  9  3
    0.008350439402144 13  9  9  5
    0.023798122046201 13 15  9  5
   0.0065175245487873 13  9  9  7
    0.025392940299411 13 15  9  7
   0.0023643552388938 13  1  9  9
   0.0090890181588889 13  3  9  9
   -0.041015575255557 13  5  9  9
   -0.028932954472322 13  7  9  9
     0.45539185071081 13 13  9  9
     0.02828118354077 13 19  9  9
    0.027048243511396 13  9  9 13
    0.027401875225908 13 15  9 13
   0.0022174801998271 13  1  9 15
  -0.0020105662115003 13  3  9 15
    0.025968569376413 13  5  9 15
    0.092563438121927 13  7  9 15
      0.1065449095566 13 13  9 15
   -0.070668264020985 13 19  9 15
    0.010545366544764 13  9  9 19
   0.0058384349026021 13 15  9 19
  0.00012904064076802 13 11 11  1
 -0.00017307678060319 13 17 11  1
  -0.0057203821357423 13 11 11  3
  -0.0087900161256697 13 17 11  3
   0.0083504394000567 13 11 11  5
    0.023798122045678 13 17 11  5
   0.0065175245460099 13 11 11  7
    0.025392940298686 13 17 11  7
    0.002364355238637 13  1 11 11
   0.0090890181591217 13  3 11 11
   -0.041015575258564 13  5 11 11
   -0.028932954483041 13  7 11 11
     0.45539185069848 13 13 11 11
    0.028281183548953 13 19 11 11
    0.027048243508223 13 11 11 13
    0.027401875224878 13 17 11 13
   0.0022174801999054 13  1 11 17
  -0.0020105662113399 13  3 11 17
     0.02596856937539 13  5 11 17
    0.092563438120824 13  7 11 17
     0.10654490955428 13 13 11 17
   -0.070668264020004 13 19 11 17
    0.010545366544348 13 11 11 19
   0.0058384349022785 13 17 11 19
    -0.29456304957252 15  9  1  1
     0.68418924225553 15 15  1  1
  0.00010730845979735 15  9  1  3
 -1.7971309744363e-05 15 15  1  3
  -0.0060717014188432 15  9  1  5
   0.0046483880773411 15 15  1  5
  0.00014043519209441 15  9  1  7
   -0.005536621637818 15 15  1  7
   -0.011711632995489 15  1  1  9
  0.00027519561133882 15  3  1  9
    0.010336479164667 15  5  1  9
   -0.010481255127079 15  7  1  9
 -0.00017307678060446 15 13  1  9
  -0.0077168750954155 15 19  1  9
   0.0022174801998271 15  9  1 13
   0.0010110494653633 15 15  1 13
    0.013101587675665 15  1  1 15
 -0.00031640929656501 15  3  1 15
   -0.011157464862654 15  5  1 15
    0.011567608822692 15  7  1 15
  0.00010713041085067 15 13  1 15
   0.0081918553117784 15 19  1 15
    0.006616735999979 15  9  1 19
 -0.00026429270934983 15 15  1 19
  0.00010730845979735 15  9  3  1
 -1.7971309744363e-05 15 15  3  1
     0.22752280530564 15  9  3  3
     0.67012647097014 15 15  3  3
   0.0057878454437604 15  9  3  5
   0.0037247051259021 15 15  3  5
    0.003833647676217 15  9  3  7
   0.0039023757695761 15 15  3  7
 -0.00028082156889896 15  1  3  9
    0.010988162962782 15  3  3  9
  -0.0056882712792675 15  5  3  9
  -0.0079836466187464 15  7  3  9
  -0.0087900161259974 15 13  3  9
  -0.0076793779463414 15 19  3  9
  -0.0020105662115004 15  9  3 13
   0.0063174465716175 15 15  3 13
 -0.00031640929656501 15  1  3 15
    0.014385895061848 15  3  3 15
  -0.0072964517818454 15  5  3 15
  -0.0099647647348609 15  7  3 15
   -0.011380294256724 15 13  3 15
  -0.0091888814389807 15 19  3 15
    0.006567949261041 15  9  3 19
  0.00039877253477003 15 15  3 19
  -0.0060717014188432 15  9  5  1
   0.0046483880773411 15 15  5  1
   0.0057878454437604 15  9  5  3
   0.0037247051259022 15 15  5  3
   -0.060737543306499 15  9  5  5
     0.55271173361593 15 15  5  5
    0.089988893236526 15  9  5  7
     0.01579645813133 15 15  5  7
    0.014718262237336 15  1  5  9
    -0.01095200198337 15  3  5  9
   -0.023720010719931 15  5  5  9
    0.062347919660525 15  7  5  9
    0.023798122046201 15 13  5  9
     0.05731748349026 15 19  5  9
    0.025968569376413 15  9  5 13
   -0.023339133853036 15 15  5 13
   -0.011157464862654 15  1  5 15
  -0.0072964517818454 15  3  5 15
    0.044766769014186 15  5  5 15
   -0.014998043381385 15  7  5 15
    0.017386953068878 15 13  5 15
  -0.0049511988833291 15 19  5 15
    0.092385422186285 15  9  5 19
   -0.017034142720849 15 15  5 19
   0.0001404351920944 15  9  7  1
   -0.005536621637818 15 15  7  1
    0.003833647676217 15  9  7  3
   0.0039023757695761 15 15  7  3
    0.089988893236526 15  9  7  5
     0.01579645813133 15 15  7  5
    -0.11648795902208 15  9  7  7
     0.50897095260742 15 15  7  7
   -0.008474002950232 15  1  7  9
  -0.0076254168468448 15  3  7  9
     0.03723581982897 15  5  7  9
    -0.01748961272138 15  7  7  9
    0.025392940299411 15 13  7  9
   0.0089853196940786 15 19  7  9
    0.092563438121927 15  9  7 13
  -0.0098852461719596 15 15  7 13
    0.011567608822692 15  1  7 15
  -0.0099647647348609 15  3  7 15
   -0.014998043381385 15  5  7 15
    0.062086939925892 15  7  7 15
    0.019033798836577 15 13  7 15
    0.029385098694622 15 19  7 15
    0.056237341688127 15  9  7 19
    0.019199308170328 15 15  7 19
   -0.011711632995489 15  1  9  1
  0.00027519561133882 15  3  9  1
    0.010336479164667 15  5  9  1
   -0.010481255127079 15  7  9  1
 -0.00017307678060446 15 13  9  1
  -0.0077168750954155 15 19  9  1
 -0.00028082156889896 15  1  9  3
    0.010988162962782 15  3  9  3
  -0.0056882712792675 15  5  9  3
  -0.0079836466187464 15  7  9  3
  -0.0087900161259974 15 13  9  3
  -0.0076793779463414 15 19  9  3
    0.014718262237336 15  1  9  5
    -0.01095200198337 15  3  9  5
   -0.023720010719931 15  5  9  5
    0.062347919660525 15  7  9  5
    0.023798122046201 15 13  9  5
     0.05731748349026 15 19  9  5
   -0.008474002950232 15  1  9  7
  -0.0076254168468448 15  3  9  7
     0.03723581982897 15  5  9  7
    -0.01748961272138 15  7  9  7
    0.025392940299411 15 13  9  7
   0.0089853196940786 15 19  9  7
    -0.03816993314686 15  9  9  9
     0.54790770286576 15 15  9  9
  -0.0027257482002799 15 11  9 11
    0.021288226733337 15 17  9 11
  5.7440746108951e-05 15  1  9 13
  -0.0076378464798421 15  3  9 13
    0.012254270138124 15  5  9 13
    0.022576910943221 15  7  9 13
    0.027401875225908 15 13  9 13
   0.0013429240284154 15 19  9 13
      0.1777025861745 15  9  9 15
  -0.0088545354537278 15 15  9 15
     0.01779161097445 15 11  9 17
  0.00019424538699436 15 17  9 17
  -0.0066771977059162 15  1  9 19
  -0.0069862806350028 15  3  9 19
    0.031764631113016 15  5  9 19
   0.0052767681334966 15  7  9 19
   0.0058384349026021 15 13  9 19
   0.0014484204610793 15 19  9 19
  -0.0027257482002799 15 11 11  9
    0.021288226733337 15 17 11  9
   -0.032718436767282 15  9 11 11
     0.50533124939982 15 15 11 11
    0.017791610974596 15 11 11 15
  0.00019424538441084 15 17 11 15
      0.1421193642239 15  9 11 17
  -0.0092430262237937 15 15 11 17
   0.0022174801998271 15  9 13  1
   0.0010110494653633 15 15 13  1
  -0.0020105662115003 15  9 13  3
   0.0063174465716175 15 15 13  3
    0.025968569376413 15  9 13  5
   -0.023339133853036 15 15 13  5
    0.092563438121927 15  9 13  7
  -0.0098852461719596 15 15 13  7
  5.7440746108951e-05 15  1 13  9
  -0.0076378464798421 15  3 13  9
    0.012254270138124 15  5 13  9
    0.022576910943221 15  7 13  9
    0.027401875225908 15 13 13  9
   0.0013429240284154 15 19 13  9
      0.1065449095566 15  9 13 13
     0.49539274070932 15 15 13 13
  0.00010713041085067 15  1 13 15
   -0.011380294256724 15  3 13 15
    0.017386953068878 15  5 13 15
    0.019033798836577 15  7 13 15
    0.044828431783066 15 13 13 15
    0.016134297701919 15 19 13 15
   -0.070668264020985 15  9 13 19
    0.011332288768354 15 15 13 19
      -0.294563049572 17 11  1  1
     0.68418924222142 17 17  1  1
  0.00010730845979612 17 11  1  3
 -1.7971309731938e-05 17 17  1  3
  -0.0060717014189486 17 11  1  5
    0.004648388076638 17 17  1  5
  0.00014043519201803 17 11  1  7
  -0.0055366216378017 17 17  1  7
   -0.011711632995641 17  1  1 11
  0.00027519561137167 17  3  1 11
    0.010336479164512 17  5  1 11
   -0.010481255127308 17  7  1 11
 -0.00017307678060319 17 13  1 11
  -0.0077168750955241 17 19  1 11
   0.0022174801999054 17 11  1 13