 &FCI NORB=24,NELEC= 10,MS2=  0
  ORBSYM=1,1,3,1,4,1,3,3,1,1,4,3,2,1,4,3,1,3,1,4,2,1,1,3,
  ISYM=1 UHF=.FALSE.
 &END
      4.7399337499165  1  1  1  1
      -0.432785542615  1  2  1  1
    -0.13163140595272  1  4  1  1
     0.14927446301291  1  6  1  1
     0.12735745328339  1  9  1  1
     0.07490088252555  1 10  1  1
    -0.18463870703567  1 14  1  1
     0.30832692605546  1 17  1  1
    -0.20497517925055  1 19  1  1
   0.0028676099235573  1 22  1  1
   -0.047059789392573  1 23  1  1
      -0.432785542615  1  1  1  2
    0.064147360516057  1  2  1  2
    0.016215022394224  1  4  1  2
   -0.023436495174727  1  6  1  2
   -0.020503112824327  1  9  1  2
  -0.0073865620133753  1 10  1  2
    0.026623681412329  1 14  1  2
   -0.045025022590044  1 17  1  2
    0.033485995028852  1 19  1  2
 -5.5295824527085e-06  1 22  1  2
   0.0091350887032615  1 23  1  2
    0.018774172650749  1  3  1  3
      0.0108107403841  1  7  1  3
    0.011064057752773  1  8  1  3
   -0.022738587254149  1 12  1  3
  -0.0027464356644358  1 16  1  3
    0.023381328984608  1 18  1  3
   -0.011827995573219  1 24  1  3
    -0.13163140595272  1  1  1  4
    0.016215022394224  1  2  1  4
    0.029536964978903  1  4  1  4
    0.001044903537497  1  6  1  4
   0.0055523026639842  1  9  1  4
   -0.031532755805513  1 10  1  4
    0.013603765418955  1 14  1  4
   -0.016109757221559  1 17  1  4
  -0.0098327260760277  1 19  1  4
  -0.0018616600140961  1 22  1  4
   -0.008654672512857  1 23  1  4
    0.030131137554633  1  5  1  5
   -0.038336201915986  1 11  1  5
 -0.00023273012289497  1 15  1  5
  0.00049240719182186  1 20  1  5
     0.14927446301291  1  1  1  6
   -0.023436495174727  1  2  1  6
    0.001044903537497  1  4  1  6
     0.01048481590068  1  6  1  6
    0.010438117975557  1  9  1  6
  -0.0054336743026647  1 10  1  6
  -0.0078280843950157  1 14  1  6
     0.01511151424421  1 17  1  6
    -0.01727329657899  1 19  1  6
 -0.00051825002002774  1 22  1  6
  -0.0063558936253355  1 23  1  6
      0.0108107403841  1  3  1  7
   0.0062272468615766  1  7  1  7
   0.0063796795805826  1  8  1  7
   -0.013103235796455  1 12  1  7
  -0.0015839066314235  1 16  1  7
    0.013496286290059  1 18  1  7
  -0.0067804350576367  1 24  1  7
    0.011064057752773  1  3  1  8
   0.0063796795805826  1  7  1  8
   0.0065683309081469  1  8  1  8
   -0.013413783722459  1 12  1  8
  -0.0016206960972372  1 16  1  8
    0.013902671657739  1 18  1  8
  -0.0067299273486816  1 24  1  8
     0.12735745328339  1  1  1  9
   -0.020503112824327  1  2  1  9
   0.0055523026639842  1  4  1  9
    0.010438117975557  1  6  1  9
    0.011117803564401  1  9  1  9
   -0.010168729863039  1 10  1  9
   -0.005596566812951  1 14  1  9
    0.012394911117965  1 17  1  9
   -0.018530663876232  1 19  1  9
 -0.00080762320612513  1 22  1  9
  -0.0073752705437491  1 23  1  9
    0.074900882525549  1  1  1 10
  -0.0073865620133753  1  2  1 10
   -0.031532755805513  1  4  1 10
  -0.0054336743026647  1  6  1 10
   -0.010168729863039  1  9  1 10
    0.035586043627134  1 10  1 10
   -0.011103965897114  1 14  1 10
    0.010690845889601  1 17  1 10
    0.017621606686994  1 19  1 10
   0.0021041025844168  1 22  1 10
    0.011880841412787  1 23  1 10
   -0.038336201915986  1  5  1 11
    0.048967072664619  1 11  1 11
  0.00029021367240552  1 15  1 11
 -0.00067067641084789  1 20  1 11
   -0.022738587254149  1  3  1 12
   -0.013103235796455  1  7  1 12
   -0.013413783722459  1  8  1 12
     0.02766382841719  1 12  1 12
   0.0033612613950185  1 16  1 12
   -0.028528522241775  1 18  1 12
    0.014445377257373  1 24  1 12
  6.5337117440104e-05  1 13  1 13
  0.00029474615075648  1 21  1 13
    -0.18463870703566  1  1  1 14
    0.026623681412328  1  2  1 14
    0.013603765418955  1  4  1 14
  -0.0078280843950156  1  6  1 14
   -0.005596566812951  1  9  1 14
   -0.011103965897114  1 10  1 14
    0.013022913356817  1 14  1 14
   -0.020060095121456  1 17  1 14
   0.0089303578957675  1 19  1 14
 -0.00078217666135731  1 22  1 14
  0.00085847011834337  1 23  1 14
 -0.00023273012289497  1  5  1 15
  0.00029021367240552  1 11  1 15
  7.3837256363175e-05  1 15  1 15
  -0.0003051097532216  1 20  1 15
  -0.0027464356644358  1  3  1 16
  -0.0015839066314235  1  7  1 16
  -0.0016206960972372  1  8  1 16
   0.0033612613950185  1 12  1 16
  0.00041361485341303  1 16  1 16
  -0.0034763039326708  1 18  1 16
   0.0017751072143056  1 24  1 16
     0.30832692605545  1  1  1 17
   -0.045025022590044  1  2  1 17
   -0.016109757221559  1  4  1 17
     0.01511151424421  1  6  1 17
    0.012394911117965  1  9  1 17
    0.010690845889601  1 10  1 17
   -0.020060095121456  1 14  1 17
     0.03290507212492  1 17  1 17
    -0.02008026654211  1 19  1 17
  0.00017600661545548  1 22  1 17
   -0.004437629784698  1 23  1 17
    0.023381328984608  1  3  1 18
    0.013496286290059  1  7  1 18
    0.013902671657739  1  8  1 18
   -0.028528522241775  1 12  1 18
  -0.0034763039326708  1 16  1 18
    0.029696182460402  1 18  1 18
   -0.014382737763006  1 24  1 18
    -0.20497517925055  1  1  1 19
    0.033485995028852  1  2  1 19
  -0.0098327260760277  1  4  1 19
    -0.01727329657899  1  6  1 19
   -0.018530663876232  1  9  1 19
    0.017621606686994  1 10  1 19
   0.0089303578957675  1 14  1 19
    -0.02008026654211  1 17  1 19
    0.031074360876387  1 19  1 19
   0.0012192046661737  1 22  1 19
    0.012289158655717  1 23  1 19
  0.00049240719182186  1  5  1 20
 -0.00067067641084789  1 11  1 20
  -0.0003051097532216  1 15  1 20
   0.0013191815909921  1 20  1 20
  0.00029474615075648  1 13  1 21
   0.0013609343611829  1 21  1 21
   0.0028676099235571  1  1  1 22
 -5.5295824526605e-06  1  2  1 22
  -0.0018616600140961  1  4  1 22
 -0.00051825002002776  1  6  1 22
 -0.00080762320612515  1  9  1 22
   0.0021041025844167  1 10  1 22
 -0.00078217666135728  1 14  1 22
  0.00017600661545542  1 17  1 22
   0.0012192046661737  1 19  1 22
   0.0014811036935233  1 22  1 22
  0.00073318365132617  1 23  1 22
   -0.047059789392573  1  1  1 23
   0.0091350887032616  1  2  1 23
   -0.008654672512857  1  4  1 23
  -0.0063558936253355  1  6  1 23
  -0.0073752705437491  1  9  1 23
    0.011880841412787  1 10  1 23
  0.00085847011834346  1 14  1 23
  -0.0044376297846981  1 17  1 23
    0.012289158655717  1 19  1 23
  0.00073318365132617  1 22  1 23
   0.0075021680773096  1 23  1 23
   -0.011827995573219  1  3  1 24
  -0.0067804350576367  1  7  1 24
  -0.0067299273486816  1  8  1 24
    0.014445377257373  1 12  1 24
   0.0017751072143056  1 16  1 24
   -0.014382737763006  1 18  1 24
   0.0089963754591455  1 24  1 24
      -0.432785542615  2  1  1  1
      1.0462327228476  2  2  1  1
    0.089254806673362  2  4  1  1
    -0.21204536612772  2  6  1  1
    -0.16109821665804  2  9  1  1
   -0.014282741220205  2 10  1  1
     0.17408856146671  2 14  1  1
    -0.28794500501109  2 17  1  1
      0.1805768575295  2 19  1  1
  -0.0027753112406218  2 22  1  1
     0.04779955206804  2 23  1  1
    0.064147360516057  2  1  1  2
    -0.01464140081217  2  2  1  2
  -0.0073211103762252  2  4  1  2
   0.0048240276798566  2  6  1  2
   0.0039887480783984  2  9  1  2
   0.0035524732887378  2 10  1  2
  -0.0069036543872083  2 14  1  2
    0.011081954221933  2 17  1  2
   -0.007824578593235  2 19  1  2
  0.00046169701196909  2 22  1  2
  -0.0020538120222454  2 23  1  2
    0.022825285141403  2  3  1  3
   0.0098871390152762  2  7  1  3
   0.0079253944760075  2  8  1  3
   -0.012756375395103  2 12  1  3
 -0.00089979551638909  2 16  1  3
   0.0062779993764433  2 18  1  3
  -0.0053062980076916  2 24  1  3
    0.016215022394224  2  1  1  4
   -0.013357803618702  2  2  1  4
    0.023385043923102  2  4  1  4
     0.00962884400733  2  6  1  4
    0.010684591107563  2  9  1  4
   -0.013915688227551  2 10  1  4
  9.2643182216301e-05  2 14  1  4
   0.0044774271869065  2 17  1  4
  -0.0092189901789259  2 19  1  4
  -0.0034262588021595  2 22  1  4
  -0.0035739215030022  2 23  1  4
    0.030114564968895  2  5  1  5
   -0.019238615150788  2 11  1  5
  0.00080695967833765  2 15  1  5
   -0.002718873637543  2 20  1  5
   -0.023436495174727  2  1  1  6
   0.0023222389513732  2  2  1  6
   0.0093062228524668  2  4  1  6
  0.00064188283553351  2  6  1  6
   0.0013111564468226  2  9  1  6
  -0.0052557525125883  2 10  1  6
   0.0028731299507651  2 14  1  6
  -0.0033662847784122  2 17  1  6
  0.00065128639592636  2 19  1  6
  -0.0011179461276571  2 22  1  6
 -4.7454314962919e-05  2 23  1  6
    0.012809723034049  2  3  1  7
   0.0056024652058734  2  7  1  7
   0.0045792801506087  2  8  1  7
  -0.0072078906868901  2 12  1  7
 -0.00051112940346131  2 16  1  7
   0.0037031200991241  2 18  1  7
  -0.0028541386990026  2 24  1  7
    0.012755680821605  2  3  1  8
    0.005665718471192  2  7  1  8
   0.0049144632444896  2  8  1  8
  -0.0071063687380634  2 12  1  8
 -0.00052529480895139  2 16  1  8
   0.0041870312316292  2 18  1  8
  -0.0020829255704878  2 24  1  8
   -0.020503112824327  2  1  1  9
  0.00043462651054772  2  2  1  9
    0.012429222472547  2  4  1  9
   0.0020551615060028  2  6  1  9
   0.0030502854675092  2  9  1  9
  -0.0070680711343536  2 10  1  9
   0.0029392021395811  2 14  1  9
  -0.0027689810671544  2 17  1  9
  -0.0010972355639873  2 19  1  9
  -0.0017285337784925  2 22  1  9
  2.4437803030399e-05  2 23  1  9
  -0.0073865620133753  2  1  1 10
    0.011867765913789  2  2  1 10
   -0.025814166636648  2  4  1 10
  -0.0095082166409807  2  6  1 10
   -0.010748838612063  2  9  1 10
    0.015728614795266  2 10  1 10
  -0.0010219186588245  2 14  1 10
  -0.0030434019770866  2 17  1 10
   0.0088092956121796  2 19  1 10
   0.0034329934640002  2 22  1 10
    0.003951215034352  2 23  1 10
   -0.034778674635179  2  5  1 11
    0.022785983084691  2 11  1 11
 -0.00083363012020812  2 15  1 11
   0.0029983251299273  2 20  1 11
   -0.024849242969348  2  3  1 12
   -0.010887281002223  2  7  1 12
  -0.0087923086474093  2  8  1 12
    0.014335783202222  2 12  1 12
   0.0010065737511361  2 16  1 12
    -0.00726490158548  2 18  1 12
   0.0061573618920418  2 24  1 12
  0.00052879522655989  2 13  1 13
   0.0012545668093375  2 21  1 13
    0.026623681412328  2  1  1 14
  -0.0077835684371367  2  2  1 14
    0.003207896261325  2  4  1 14
   0.0038668010293811  2  6  1 14
   0.0040167857324378  2  9  1 14
  -0.0021263474311543  2 10  1 14
  -0.0017561068465688  2 14  1 14
   0.0047987195833503  2 17  1 14
  -0.0049251727738242  2 19  1 14
  -0.0017599445010782  2 22  1 14
  -0.0012113574432727  2 23  1 14
 -0.00025412743007601  2  5  1 15
  0.00017264808618988  2 11  1 15
  0.00046683485321974  2 15  1 15
  -0.0012146744125421  2 20  1 15
  -0.0026072844796972  2  3  1 16
  -0.0011516669052509  2  7  1 16
 -0.00094315756584148  2  8  1 16
   0.0015362743126484  2 12  1 16
  0.00017165247359684  2 16  1 16
  -0.0008058866970199  2 18  1 16
  0.00068808772383157  2 24  1 16
   -0.045025022590044  2  1  1 17
    0.010941729313554  2  2  1 17
  0.00047053862101162  2  4  1 17
   -0.004534695772787  2  6  1 17
  -0.0043499290001663  2  9  1 17
  0.00018374368891236  2 10  1 17
   0.0043302934747133  2 14  1 17
  -0.0069834863476595  2 17  1 17
   0.0068095249060564  2 19  1 17
 -0.00056435912940973  2 22  1 17
   0.0012166603649737  2 23  1 17
    0.023173775900961  2  3  1 18
     0.01041427228785  2  7  1 18
   0.0091563431795759  2  8  1 18
   -0.013327625868102  2 12  1 18
 -0.00098377437794787  2 16  1 18
   0.0082634904928071  2 18  1 18
  -0.0038591349720148  2 24  1 18
    0.033485995028852  2  1  1 19
   -0.001068482248278  2  2  1 19
   -0.018464986700619  2  4  1 19
  -0.0029953047331134  2  6  1 19
  -0.0046936699061273  2  9  1 19
    0.010739646625214  2 10  1 19
   -0.004350646142526  2 14  1 19
   0.0045864448541527  2 17  1 19
   0.0022769507548137  2 19  1 19
   0.0019753026549754  2 22  1 19
 -0.00065878668976156  2 23  1 19
 -0.00046302105094983  2  5  1 20
   0.0002233205210213  2 11  1 20
  -0.0016937528794011  2 15  1 20
     0.00499870400185  2 20  1 20
   0.0019172359026666  2 13  1 21
   0.0051645978001256  2 21  1 21
 -5.5295824526618e-06  2  1  1 22
  0.00079671563073013  2  2  1 22
  -0.0024871470926558  2  4  1 22
 -0.00083175743470485  2  6  1 22
  -0.0012721091603604  2  9  1 22
   0.0011459594190587  2 10  1 22
  -0.0018360315792514  2 14  1 22
  -0.0012607026648234  2 17  1 22
  0.00038857140189264  2 19  1 22
   0.0052829105153319  2 22  1 22
  1.9189199461647e-05  2 23  1 22
   0.0091350887032616  2  1  1 23
   0.0022063694648893  2  2  1 23
    -0.01001208452901  2  4  1 23
  -0.0024449365048219  2  6  1 23
  -0.0020262841467312  2  9  1 23
   0.0067353653942292  2 10  1 23
 -0.00070174208608266  2 14  1 23
 -0.00044416209646983  2 17  1 23
 -0.00026126207679535  2 19  1 23
  0.00089922827974574  2 22  1 23
   0.0055895381652895  2 23  1 23
   -0.012985511677005  2  3  1 24
  -0.0053687522147422  2  7  1 24
  -0.0030090248730699  2  8  1 24
   0.0082212962081528  2 12  1 24
  0.00051704659855053  2 16  1 24
  -0.0015695295153218  2 18  1 24
   0.0080219057856593  2 24  1 24
    0.064147360516057  2  1  2  1
    -0.01464140081217  2  2  2  1
  -0.0073211103762252  2  4  2  1
   0.0048240276798566  2  6  2  1
   0.0039887480783984  2  9  2  1
   0.0035524732887378  2 10  2  1
  -0.0069036543872083  2 14  2  1
    0.011081954221933  2 17  2  1
   -0.007824578593235  2 19  2  1
  0.00046169701196909  2 22  2  1
  -0.0020538120222454  2 23  2  1
    -0.01464140081217  2  1  2  2
      0.7486622734683  2  2  2  2
   -0.011961793022362  2  4  2  2
    -0.10874731739717  2  6  2  2
    -0.06423553166952  2  9  2  2
   0.0099987469947718  2 10  2  2
    0.056611906128405  2 14  2  2
   -0.098459230783434  2 17  2  2
    0.034535155600803  2 19  2  2
   0.0027617975185975  2 22  2  2
    0.010260661454145  2 23  2  2
      0.1532398886591  2  3  2  3
    0.041101754458128  2  7  2  3
   0.0075592118756891  2  8  2  3
   -0.036245590561348  2 12  2  3
  -0.0035128947862013  2 16  2  3
   -0.018746622420197  2 18  2  3
   -0.012651864102473  2 24  2  3
  -0.0073211103762252  2  1  2  4
   -0.011961793022362  2  2  2  4
     0.12661614325178  2  4  2  4
    0.017370676834624  2  6  2  4
    0.014180773791922  2  9  2  4
   -0.030773115126367  2 10  2  4
    0.022729677567474  2 14  2  4
  -0.0026656491006197  2 17  2  4
    0.010813038795491  2 19  2  4
   -0.018409792590335  2 22  2  4
   0.0062479037108083  2 23  2  4
     0.12988102960419  2  5  2  5
   -0.039748259480785  2 11  2  5
    0.013332939411613  2 15  2  5
   -0.018499429974681  2 20  2  5
   0.0048240276798566  2  1  2  6
    -0.10874731739717  2  2  2  6
    0.017370676834624  2  4  2  6
    0.037100477333717  2  6  2  6
    0.033261389779503  2  9  2  6
   -0.010645259013192  2 10  2  6
   -0.015738410651607  2 14  2  6
    0.030976287861399  2 17  2  6
   -0.020193751849415  2 19  2  6
  -0.0057515056220131  2 22  2  6
  -0.0039140279383804  2 23  2  6
    0.041101754458128  2  3  2  7
    0.019662976901575  2  7  2  7
    0.016700473820557  2  8  2  7
   -0.018058454118788  2 12  2  7
  -0.0014967115645939  2 16  2  7
   0.0028562643695018  2 18  2  7
  -0.0054410430417461  2 24  2  7
    0.007559211875689  2  3  2  8
    0.016700473820557  2  7  2  8
     0.03875448549607  2  8  2  8
  -0.0059781655598796  2 12  2  8
  -0.0033417193609466  2 16  2  8
    0.022438836884655  2 18  2  8
   0.0051976185524752  2 24  2  8
   0.0039887480783984  2  1  2  9
    -0.06423553166952  2  2  2  9
    0.014180773791922  2  4  2  9
    0.033261389779503  2  6  2  9
    0.049954335926706  2  9  2  9
  -0.0049218811896993  2 10  2  9
  -0.0058309429019266  2 14  2  9
    0.018094791750088  2 17  2  9
   -0.033652806449933  2 19  2  9
   -0.012910618302942  2 22  2  9
   0.0012073968975467  2 23  2  9
   0.0035524732887378  2  1  2 10
   0.0099987469947718  2  2  2 10
   -0.030773115126367  2  4  2 10
   -0.010645259013192  2  6  2 10
  -0.0049218811896993  2  9  2 10
    0.035601705133302  2 10  2 10
   0.0052399794235374  2 14  2 10
  -0.0027958278151331  2 17  2 10
   0.0020555919913295  2 19  2 10
   0.0023203538648188  2 22  2 10
    0.011326658796077  2 23  2 10
   -0.039748259480785  2  5  2 11
    0.038098388272071  2 11  2 11
   0.0025274844864782  2 15  2 11
   0.0063942085522276  2 20  2 11
   -0.036245590561348  2  3  2 12
   -0.018058454118788  2  7  2 12
  -0.0059781655598797  2  8  2 12
    0.034565285046151  2 12  2 12
  -0.0024073654361287  2 16  2 12
  -0.0010160951185552  2 18  2 12
    0.021918864474307  2 24  2 12
    0.031915579116189  2 13  2 13
    0.023973260118102  2 21  2 13
  -0.0069036543872083  2  1  2 14
    0.056611906128405  2  2  2 14
    0.022729677567474  2  4  2 14
   -0.015738410651607  2  6  2 14
  -0.0058309429019266  2  9  2 14
   0.0052399794235375  2 10  2 14
    0.040008582687798  2 14  2 14
   -0.017742196625301  2 17  2 14
     0.01373476764048  2 19  2 14
   -0.022004187107537  2 22  2 14
    0.012971150440229  2 23  2 14
    0.013332939411613  2  5  2 15
   0.0025274844864782  2 11  2 15
     0.02546503484785  2 15  2 15
   -0.021085797389745  2 20  2 15
  -0.0035128947862012  2  3  2 16
  -0.0014967115645938  2  7  2 16
  -0.0033417193609467  2  8  2 16
  -0.0024073654361287  2 12  2 16
    0.016437669016225  2 16  2 16
 -0.00078348558161264  2 18  2 16
  -0.0010163132515428  2 24  2 16
    0.011081954221933  2  1  2 17
   -0.098459230783434  2  2  2 17
  -0.0026656491006196  2  4  2 17
    0.030976287861399  2  6  2 17
    0.018094791750088  2  9  2 17
  -0.0027958278151333  2 10  2 17
   -0.017742196625301  2 14  2 17
    0.059308648447737  2 17  2 17
   -0.014749492234665  2 19  2 17
   -0.011750590193018  2 22  2 17
   -0.015065010619433  2 23  2 17
   -0.018746622420197  2  3  2 18
   0.0028562643695018  2  7  2 18
    0.022438836884655  2  8  2 18
  -0.0010160951185551  2 12  2 18
 -0.00078348558161265  2 16  2 18
    0.036531652449396  2 18  2 18
    0.014935541391311  2 24  2 18
  -0.0078245785932347  2  1  2 19
    0.034535155600803  2  2  2 19
    0.010813038795491  2  4  2 19
   -0.020193751849415  2  6  2 19
   -0.033652806449933  2  9  2 19
   0.0020555919913296  2 10  2 19
     0.01373476764048  2 14  2 19
   -0.014749492234666  2 17  2 19
    0.051450544979622  2 19  2 19
 -0.00047450713288524  2 22  2 19
   -0.011263838029107  2 23  2 19
   -0.018499429974681  2  5  2 20
   0.0063942085522276  2 11  2 20
   -0.021085797389745  2 15  2 20
    0.058203255535825  2 20  2 20
    0.023973260118102  2 13  2 21
    0.056538122332855  2 21  2 21
   0.0004616970119691  2  1  2 22
   0.0027617975185976  2  2  2 22
   -0.018409792590335  2  4  2 22
  -0.0057515056220132  2  6  2 22
   -0.012910618302942  2  9  2 22
   0.0023203538648188  2 10  2 22
   -0.022004187107537  2 14  2 22
   -0.011750590193019  2 17  2 22
 -0.00047450713288512  2 19  2 22
    0.056619860043034  2 22  2 22
  -0.0024306885404765  2 23  2 22
  -0.0020538120222452  2  1  2 23
    0.010260661454145  2  2  2 23
   0.0062479037108083  2  4  2 23
  -0.0039140279383807  2  6  2 23
   0.0012073968975466  2  9  2 23
    0.011326658796077  2 10  2 23
    0.012971150440229  2 14  2 23
   -0.015065010619434  2 17  2 23
   -0.011263838029107  2 19  2 23
  -0.0024306885404764  2 22  2 23
    0.048374382223806  2 23  2 23
   -0.012651864102473  2  3  2 24
  -0.0054410430417462  2  7  2 24
   0.0051976185524752  2  8  2 24
    0.021918864474307  2 12  2 24
  -0.0010163132515428  2 16  2 24
    0.014935541391311  2 18  2 24
    0.050795596408393  2 24  2 24
     0.86447960686686  3  3  1  1
     0.24568734619354  3  7  1  1
     0.17895547216719  3  8  1  1
    -0.32469116750459  3 12  1  1
   -0.024236763640753  3 16  1  1
     0.19538876839712  3 18  1  1
    -0.11975887876365  3 24  1  1
  -0.0063470894732312  3  3  1  2
  -0.0041216304818979  3  7  1  2
  -0.0050884321840031  3  8  1  2
   0.0078456655812595  3 12  1  2
   0.0010558302547375  3 16  1  2
   -0.009668971306297  3 18  1  2
    0.002251343554722  3 24  1  2
    0.018774172650749  3  1  1  3
    0.022825285141404  3  2  1  3
   0.0025880689061983  3  4  1  3
  -0.0042352018394018  3  6  1  3
   0.0013744770373618  3  9  1  3
   0.0018324155042737  3 10  1  3
   0.0097622080522237  3 14  1  3
  -0.0096039836239782  3 17  1  3
  -0.0017942750206501  3 19  1  3
  -0.0080360323257257  3 22  1  3
    0.013463542666837  3 23  1  3
  -0.0067294192386179  3  3  1  4
 -0.00082929131925542  3  7  1  4
    0.004879953036953  3  8  1  4
   0.0062451026670638  3 12  1  4
 -0.00023114434489938  3 16  1  4
   0.0050433465152578  3 18  1  4
    0.015534857280789  3 24  1  4
   0.0082369056477533  3 13  1  5
     0.01739677352493  3 21  1  5
  0.00063346391207387  3  3  1  6
   0.0013653437183453  3  7  1  6
   0.0032760846116062  3  8  1  6
  -0.0014219905606418  3 12  1  6
 -0.00050694514031908  3 16  1  6
   0.0052224445508882  3 18  1  6
   0.0033113379184728  3 24  1  6
      0.0108107403841  3  1  1  7
    0.012809723034049  3  2  1  7
   0.0016412705708478  3  4  1  7
   -0.002401035557112  3  6  1  7
  0.00071711174949423  3  9  1  7
  0.00091872571431245  3 10  1  7
   0.0055432759403239  3 14  1  7
  -0.0054506610990091  3 17  1  7
 -0.00097205355981584  3 19  1  7
  -0.0045454546503649  3 22  1  7
   0.0076365314388272  3 23  1  7
    0.011064057752773  3  1  1  8
    0.012755680821605  3  2  1  8
   0.0023475045678595  3  4  1  8
  -0.0022657917062586  3  6  1  8
   0.0008206182168463  3  9  1  8
  0.00045131476487009  3 10  1  8
   0.0057105246611403  3 14  1  8
  -0.0054831385360935  3 17  1  8
   -0.001037011563945  3 19  1  8
  -0.0046403467042442  3 22  1  8
   0.0077646168050732  3 23  1  8
  0.00033567281791496  3  3  1  9
   0.0014807166220192  3  7  1  9
   0.0040642923525035  3  8  1  9
 -0.00088914871713123  3 12  1  9
 -0.00067039570361016  3 16  1  9
   0.0060255454843764  3 18  1  9
   0.0053694355341697  3 24  1  9
   0.0062843684308402  3  3  1 10
  0.00040496767002973  3  7  1 10
  -0.0056569585656576  3  8  1 10
  -0.0054582985928812  3 12  1 10
  0.00027352258325875  3 16  1 10
  -0.0066582315908482  3 18  1 10
   -0.016289126805662  3 24  1 10
  -0.0092777463199879  3 13  1 11
   -0.020095086811237  3 21  1 11
   -0.022738587254149  3  1  1 12
   -0.024849242969348  3  2  1 12
  -0.0028916984503214  3  4  1 12
   0.0048174604497112  3  6  1 12
  -0.0011646934994277  3  9  1 12
  -0.0018727378996028  3 10  1 12
   -0.010745912235529  3 14  1 12
    0.010863435387904  3 17  1 12
   0.0015849440701927  3 19  1 12
   0.0087672805203699  3 22  1 12
   -0.014882919002076  3 23  1 12
   0.0010051676840956  3  5  1 13
 -0.00067033801423803  3 11  1 13
  0.00020726131344976  3 15  1 13
 -4.9050443725832e-05  3 20  1 13
  -0.0027789779634997  3  3  1 14
  -0.0011499300800587  3  7  1 14
 -0.00015997746408309  3  8  1 14
   0.0035396653699791  3 12  1 14
  6.0511921681771e-05  3 16  1 14
  -0.0017333187639835  3 18  1 14
   0.0042419201380598  3 24  1 14
  8.1251386858821e-05  3 13  1 15
  -0.0001911189162135  3 21  1 15
  -0.0027464356644358  3  1  1 16
  -0.0026072844796972  3  2  1 16
 -0.00029926918876072  3  4  1 16
  0.00051849684049371  3  6  1 16
  -0.0001295403259788  3  9  1 16
 -0.00023360591869926  3 10  1 16
  -0.0012114271605091  3 14  1 16
    0.001162980052344  3 17  1 16
  0.00015088770984607  3 19  1 16
   0.0010115185560269  3 22  1 16
  -0.0016779149592475  3 23  1 16
   0.0045750502928765  3  3  1 17
   0.0024649968143503  3  7  1 17
   0.0021806926868938  3  8  1 17
  -0.0055980530393798  3 12  1 17
 -0.00063506804417601  3 16  1 17
    0.005060454831489  3 18  1 17
  -0.0040813067837553  3 24  1 17
    0.023381328984608  3  1  1 18
    0.023173775900961  3  2  1 18
   0.0045730688193346  3  4  1 18
  -0.0042273600065004  3  6  1 18
   0.0012925872206127  3  9  1 18
  0.00048987464148238  3 10  1 18
    0.010528527668232  3 14  1 18
   -0.010425323282293  3 17  1 18
  -0.0014856422822838  3 19  1 18
   -0.008475870503835  3 22  1 18
    0.014345764521119  3 23  1 18
 -0.00096292351776337  3  3  1 19
   -0.002344005070728  3  7  1 19
  -0.0059990646283078  3  8  1 19
   0.0016377811234997  3 12  1 19
  0.00098807284196301  3 16  1 19
  -0.0089190968056758  3 18  1 19
  -0.0080278299472042  3 24  1 19
  -0.0004536283417366  3 13  1 20
  0.00023838908597435  3 21  1 20
   0.0041960743878782  3  5  1 21
  -0.0030804910170378  3 11  1 21
  0.00053804090981186  3 15  1 21
  8.5679831052301e-05  3 20  1 21
  -0.0015454576164494  3  3  1 22
 -0.00095743194006431  3  7  1 22
   -0.001505746289109  3  8  1 22
  0.00080162200609329  3 12  1 22
  0.00075449039031851  3 16  1 22
  -0.0014581911386556  3 18  1 22
 -0.00055786230073865  3 24  1 22
   0.0051848401309707  3  3  1 23
   0.0014248838969221  3  7  1 23
 -0.00096903902494823  3  8  1 23
   -0.003445577742681  3 12  1 23
 -0.00054810596182802  3 16  1 23
  -0.0017587569492982  3 18  1 23
  -0.0059646520699033  3 24  1 23
   -0.011827995573219  3  1  1 24
   -0.012985511677005  3  2  1 24
   0.0024999946567452  3  4  1 24
   0.0034635191301794  3  6  1 24
  0.00056271715744561  3  9  1 24
  -0.0038030683001663  3 10  1 24
  -0.0047546583277407  3 14  1 24
    0.005524262102593  3 17  1 24
 -0.00033283797781826  3 19  1 24
   0.0041080280199586  3 22  1 24
  -0.0073347823980816  3 23  1 24
  -0.0063470894732312  3  3  2  1
  -0.0041216304818979  3  7  2  1
  -0.0050884321840031  3  8  2  1
   0.0078456655812595  3 12  2  1
   0.0010558302547375  3 16  2  1
   -0.009668971306297  3 18  2  1
    0.002251343554722  3 24  2  1
     0.67242458304789  3  3  2  2
     0.12698784183089  3  7  2  2
    0.042641889306344  3  8  2  2
    -0.13464850442713  3 12  2  2
   -0.006997513499344  3 16  2  2
    0.010420544414294  3 18  2  2
   -0.045719106636561  3 24  2  2
    0.022825285141404  3  1  2  3
      0.1532398886591  3  2  2  3
   -0.019663742747136  3  4  2  3
   0.0030939688474377  3  6  2  3
    0.064514608952923  3  9  2  3
    0.031516347694458  3 10  2  3
    0.043419329112247  3 14  2  3
   -0.023054688737342  3 17  2  3
   -0.050694258417572  3 19  2  3
   -0.043771269235852  3 22  2  3
    0.047643273847459  3 23  2  3
   -0.014151205356555  3  3  2  4
    0.022033617744145  3  7  2  4
    0.069271973780555  3  8  2  4
   0.0096465326240871  3 12  2  4
  -0.0083721096583201  3 16  2  4
    0.053337587692354  3 18  2  4
    0.046783707308942  3 24  2  4
    0.058780323958639  3 13  2  5
    0.073006716875077  3 21  2  5
    -0.07733749895411  3  3  2  6
   -0.032933590445113  3  7  2  6
   -0.017886673949102  3  8  2  6
    0.045022711052704  3 12  2  6
  -0.0020212969708255  3 16  2  6
  -0.0031801286004563  3 18  2  6
    0.028805857849632  3 24  2  6
   0.0098871390152762  3  1  2  7
    0.041101754458128  3  2  2  7
   0.0069601766214779  3  4  2  7
   -0.010448801614609  3  6  2  7
  0.00063519823735869  3  9  2  7
   0.0073610375962723  3 10  2  7
    0.017838089271149  3 14  2  7
   -0.010635301237699  3 17  2  7
   -0.012740340617365  3 19  2  7
    -0.01584982259986  3 22  2  7
    0.025006408733776  3 23  2  7
   0.0079253944760074  3  1  2  8
   0.0075592118756891  3  2  2  8
    0.032975871911268  3  4  2  8
   -0.011416143325369  3  6  2  8
   -0.026768989902681  3  9  2  8
 -0.00070871396740674  3 10  2  8
    0.021199318522073  3 14  2  8
  0.00082358844553039  3 17  2  8
   0.0047531716728706  3 19  2  8
  -0.0077319248937055  3 22  2  8
    0.032241715639592  3 23  2  8
   -0.016446439501133  3  3  2  9
     -0.0227074288083  3  7  2  9
   -0.031329591649609  3  8  2  9
    0.035845853288874  3 12  2  9
   -0.017032471339622  3 16  2  9
   -0.010892330651381  3 18  2  9
    0.034715791563629  3 24  2  9
    0.016271471389717  3  3  2 10
   0.0040931292435717  3  7  2 10
  -0.0038636946908334  3  8  2 10
 -0.00022895760954087  3 12  2 10
   -0.013920326269928  3 16  2 10
   -0.018708039864311  3 18  2 10
    -0.02120198629852  3 24  2 10
 -0.00070790658182317  3 13  2 11
   -0.028277048387969  3 21  2 11
   -0.012756375395103  3  1  2 12
   -0.036245590561348  3  2  2 12
   0.0058370380475873  3  4  2 12
    0.017307088179441  3  6  2 12
   0.0072675453788815  3  9  2 12
  -0.0015230753894525  3 10  2 12
  -0.0099798155874824  3 14  2 12
     0.02574700649632  3 17  2 12
   0.0070387611728302  3 19  2 12
    0.015620748764753  3 22  2 12
   -0.019919921696774  3 23  2 12
    0.025711260678998  3  5  2 13
   0.0042903452474708  3 11  2 13
    0.027923145111754  3 15  2 13
   0.0030222302909129  3 20  2 13
    0.057899162247213  3  3  2 14
    0.027696217493595  3  7  2 14
    0.033456489146629  3  8  2 14
   -0.023975664167781  3 12  2 14
   -0.024490364694395  3 16  2 14
    0.016016012188728  3 18  2 14
  -0.0076861725370967  3 24  2 14
    0.029414587560645  3 13  2 15
   0.0012026356488199  3 21  2 15
 -0.00089979551638909  3  1  2 16
  -0.0035128947862012  3  2  2 16
  -0.0024951175463024  3  4  2 16
  -0.0014591813124502  3  6  2 16
   -0.010502642770409  3  9  2 16
  -0.0097864364906314  3 10  2 16
   -0.018187392134852  3 14  2 16
  -0.0035833343241199  3 17  2 16
   0.0023983081348389  3 19  2 16
 -2.1244847037622e-05  3 22  2 16
  -0.0028822625763175  3 23  2 16
   -0.079563581042803  3  3  2 17
   -0.033461528978972  3  7  2 17
   -0.015143478635485  3  8  2 17
     0.05580822853645  3 12  2 17
  9.2844510884662e-05  3 16  2 17
   -0.024067869326857  3 18  2 17
    0.018732614007651  3 24  2 17
   0.0062779993764433  3  1  2 18
   -0.018746622420197  3  2  2 18
    0.028611331732084  3  4  2 18
  -0.0021543367068324  3  6  2 18
   -0.018056711423763  3  9  2 18
   -0.014915119891751  3 10  2 18
   0.0033795863218306  3 14  2 18
  -0.0059870637973855  3 17  2 18
    0.025815374997028  3 19  2 18
  0.00031085507767957  3 22  2 18
    0.015861711424039  3 23  2 18
  -0.0015867889840782  3  3  2 19
    0.010807001814627  3  7  2 19
    0.026242205685528  3  8  2 19
   -0.019212504434663  3 12  2 19
   0.0034758085694357  3 16  2 19
    0.034753101960365  3 18  2 19