
    -----------------------------------------------------------------------
          Psi4: An Open-Source Ab Initio Electronic Structure Package
                               Psi4 1.4a2.dev839 

                         Git: Rev {master} e273d32 


    D. G. A. Smith, L. A. Burns, A. C. Simmonett, R. M. Parrish,
    M. C. Schieber, R. Galvelis, P. Kraus, H. Kruse, R. Di Remigio,
    A. Alenaizan, A. M. James, S. Lehtola, J. P. Misiewicz, M. Scheurer,
    R. A. Shaw, J. B. Schriber, Y. Xie, Z. L. Glick, D. A. Sirianni,
    J. S. O'Brien, J. M. Waldrop, A. Kumar, E. G. Hohenstein,
    B. P. Pritchard, B. R. Brooks, H. F. Schaefer III, A. Yu. Sokolov,
    K. Patkowski, A. E. DePrince III, U. Bozkaya, R. A. King,
    F. A. Evangelista, J. M. Turney, T. D. Crawford, C. D. Sherrill,
    J. Chem. Phys. 152(18) 184108 (2020). https://doi.org/10.1063/5.0006002

                            Additional Code Authors
    E. T. Seidl, C. L. Janssen, E. F. Valeev, M. L. Leininger,
    J. F. Gonthier, R. M. Richard, H. R. McAlexander, M. Saitow, X. Wang,
    P. Verma, and M. H. Lechner

             Previous Authors, Complete List of Code Contributors,
                       and Citations for Specific Modules
    https://github.com/psi4/psi4/blob/master/codemeta.json
    https://github.com/psi4/psi4/graphs/contributors
    http://psicode.org/psi4manual/master/introduction.html#citing-psifour

    -----------------------------------------------------------------------


    Psi4 started on: Monday, 27 July 2020 10:02AM

    Process ID: 2432
    Host:       minazo
    PSIDATADIR: /home/roberto/Workspace/robertodr/psi4/build_master/stage/share/psi4
    Memory:     500.0 MiB
    Threads:    1
    
  ==> Input File <==

--------------------------------------------------------------------------
molecule h2o {
    O
    H 1 0.96
    H 1 0.96 2 104.5
}

set {
    basis cc-pVDZ
    scf_type pk
    e_convergence 1.0e-8
    d_convergence 1.0e-8
}

scf_e, scf_wfn = energy('SCF', return_wfn=True)
fcidump(scf_wfn, fname='H2O_INTDUMP', oe_ints=['EIGENVALUES'])
--------------------------------------------------------------------------

Scratch directory: /tmp/

*** tstart() called on minazo
*** at Mon Jul 27 10:02:28 2020

   => Loading Basis Set <=

    Name: CC-PVDZ
    Role: ORBITAL
    Keyword: BASIS
    atoms 1   entry O          line   198 file /home/roberto/Workspace/robertodr/psi4/build_master/stage/share/psi4/basis/cc-pvdz.gbs 
    atoms 2-3 entry H          line    22 file /home/roberto/Workspace/robertodr/psi4/build_master/stage/share/psi4/basis/cc-pvdz.gbs 


         ---------------------------------------------------------
                                   SCF
               by Justin Turney, Rob Parrish, Andy Simmonett
                          and Daniel G. A. Smith
                              RHF Reference
                        1 Threads,    500 MiB Core
         ---------------------------------------------------------

  ==> Geometry <==

    Molecular point group: c2v
    Full point group: C2v

    Geometry (in Angstrom), charge = 0, multiplicity = 1:

       Center              X                  Y                   Z               Mass       
    ------------   -----------------  -----------------  -----------------  -----------------
         O            0.000000000000     0.000000000000    -0.065775570547    15.994914619570
         H            0.000000000000    -0.759061990794     0.521953018286     1.007825032230
         H            0.000000000000     0.759061990794     0.521953018286     1.007825032230

  Running in c2v symmetry.

  Rotational constants: A =     27.26297  B =     14.51533  C =      9.47217 [cm^-1]
  Rotational constants: A = 817323.21126  B = 435158.60141  C = 283968.37536 [MHz]
  Nuclear repulsion =    9.168193296424349

  Charge       = 0
  Multiplicity = 1
  Electrons    = 10
  Nalpha       = 5
  Nbeta        = 5

  ==> Algorithm <==

  SCF Algorithm Type is PK.
  DIIS enabled.
  MOM disabled.
  Fractional occupation disabled.
  Guess Type is SAD.
  Energy threshold   = 1.00e-08
  Density threshold  = 1.00e-08
  Integral threshold = 0.00e+00

  ==> Primary Basis <==

  Basis Set: CC-PVDZ
    Blend: CC-PVDZ
    Number of shells: 12
    Number of basis function: 24
    Number of Cartesian functions: 25
    Spherical Harmonics?: true
    Max angular momentum: 2

  ==> Integral Setup <==

  Using in-core PK algorithm.
   Calculation information:
      Number of atoms:                   3
      Number of AO shells:              12
      Number of primitives:             32
      Number of atomic orbitals:        25
      Number of basis functions:        24

      Integral cutoff                 1.00e-12
      Number of threads:                 1

  Performing in-core PK
  Using 90300 doubles for integral storage.
  We computed 3081 shell quartets total.
  Whereas there are 3081 unique shell quartets.

  ==> DiskJK: Disk-Based J/K Matrices <==

    J tasked:                  Yes
    K tasked:                  Yes
    wK tasked:                  No
    Memory [MiB]:              375
    Schwarz Cutoff:          1E-12

    OpenMP threads:              1

  Minimum eigenvalue in the overlap matrix is 3.2707806872E-02.
  Reciprocal condition number of the overlap matrix is 1.0389988226E-02.
    Using symmetric orthogonalization.

  ==> Pre-Iterations <==

  SCF Guess: Superposition of Atomic Densities via on-the-fly atomic UHF (no occupation information).

   -------------------------
    Irrep   Nso     Nmo    
   -------------------------
     A1        11      11 
     A2         2       2 
     B1         4       4 
     B2         7       7 
   -------------------------
    Total      24      24
   -------------------------

  ==> Iterations <==

                        Total Energy        Delta E     RMS |[F,P]|

   @RHF iter SAD:   -75.50773245934781   -7.55077e+01   0.00000e+00 
   @RHF iter   1:   -75.95378451303716   -4.46052e-01   3.03072e-02 DIIS
   @RHF iter   2:   -76.00708060915017   -5.32961e-02   1.73589e-02 DIIS
   @RHF iter   3:   -76.02624491761580   -1.91643e-02   1.58426e-03 DIIS
   @RHF iter   4:   -76.02663310976151   -3.88192e-04   3.65265e-04 DIIS
   @RHF iter   5:   -76.02665270339175   -1.95936e-05   6.70876e-05 DIIS
   @RHF iter   6:   -76.02665363514923   -9.31757e-07   1.06688e-05 DIIS
   @RHF iter   7:   -76.02665366131464   -2.61654e-08   1.50538e-06 DIIS
   @RHF iter   8:   -76.02665366185400   -5.39359e-10   3.50179e-07 DIIS
   @RHF iter   9:   -76.02665366188759   -3.35945e-11   5.92347e-08 DIIS
   @RHF iter  10:   -76.02665366188837   -7.81597e-13   4.88796e-09 DIIS
  Energy and wave function converged.


  ==> Post-Iterations <==

    Orbital Energies [Eh]
    ---------------------

    Doubly Occupied:                                                      

       1A1   -20.550919     2A1    -1.335305     1B2    -0.697799  
       3A1    -0.566090     1B1    -0.492954  

    Virtual:                                                              

       4A1     0.185103     2B2     0.255849     3B2     0.787301  
       5A1     0.851798     6A1     1.163709     2B1     1.200352  
       4B2     1.253479     7A1     1.444918     1A2     1.475588  
       3B1     1.674083     8A1     1.867861     5B2     1.931955  
       6B2     2.446380     9A1     2.483524     4B1     3.283305  
       2A2     3.336169    10A1     3.506961    11A1     3.862825  
       7B2     4.144454  

    Final Occupation by Irrep:
             A1    A2    B1    B2 
    DOCC [     3,    0,    1,    1 ]

  @RHF Final Energy:   -76.02665366188837

   => Energetics <=

    Nuclear Repulsion Energy =              9.1681932964243487
    One-Electron Energy =                -123.1035619927236553
    Two-Electron Energy =                  37.9087150344109318
    Total Energy =                        -76.0266536618883748

Computation Completed


Properties will be evaluated at   0.000000,   0.000000,   0.000000 [a0]

Properties computed using the SCF density matrix

  Nuclear Dipole Moment: [e a0]
     X:     0.0000      Y:     0.0000      Z:     0.9783

  Electronic Dipole Moment: [e a0]
     X:     0.0000      Y:     0.0000      Z:    -0.1682

  Dipole Moment: [e a0]
     X:     0.0000      Y:     0.0000      Z:     0.8101     Total:     0.8101

  Dipole Moment: [D]
     X:     0.0000      Y:     0.0000      Z:     2.0592     Total:     2.0592


*** tstop() called on minazo at Mon Jul 27 10:02:28 2020
Module time:
	user time   =       0.45 seconds =       0.01 minutes
	system time =       0.01 seconds =       0.00 minutes
	total time  =          0 seconds =       0.00 minutes
Total time:
	user time   =       0.45 seconds =       0.01 minutes
	system time =       0.01 seconds =       0.00 minutes
	total time  =          0 seconds =       0.00 minutes
Writing integrals in FCIDUMP format to H2O_INTDUMP
 MINTS: Wrapper to libmints.
   by Justin Turney

   Calculation information:
      Number of threads:                 1
      Number of atoms:                   3
      Number of AO shells:              12
      Number of SO shells:               9
      Number of primitives:             32
      Number of atomic orbitals:        25
      Number of basis functions:        24

      Number of irreps:                  4
      Integral cutoff                 0.00e+00
      Number of functions per irrep: [  11    2    4    7 ]

 OEINTS: Overlap, kinetic, potential, dipole, and quadrupole integrals
         stored in file 35.

      Computing two-electron integrals...done
      Computed 11516 non-zero two-electron integrals.
        Stored in file 33.

	Presorting SO-basis two-electron integrals.
	Sorting File: SO Ints (nn|nn) nbuckets = 1
	Transforming the one-electron integrals and constructing Fock matrices
	Starting first half-transformation.
	Sorting half-transformed integrals.
	First half integral transformation complete.
	Starting second half-transformation.
	Two-electron integral transformation complete.
Integral transformation complete!
Writing TEI integrals in FCIDUMP format to H2O_INTDUMP
Writing frozen core operator in FCIDUMP format to H2O_INTDUMP
Writing orbital energies in FCIDUMP format to H2O_INTDUMP
Writing frozen core + nuclear repulsion energy in FCIDUMP format to H2O_INTDUMP
Done generating H2O_INTDUMP with integrals in FCIDUMP format.

    Psi4 stopped on: Monday, 27 July 2020 10:02AM
    Psi4 wall time for execution: 0:00:00.75

*** Psi4 exiting successfully. Buy a developer a beer!
