    -----------------------------------------------------------------------
          Psi4: An Open-Source Ab Initio Electronic Structure Package
                              Psi4 (no tag) Driver

    J. M. Turney, A. C. Simmonett, R. M. Parrish, E. G. Hohenstein,
    F. A. Evangelista, J. T. Fermann, B. J. Mintz, L. A. Burns, J. J. Wilke,
    M. L. Abrams, N. J. Russ, M. L. Leininger, C. L. Janssen, E. T. Seidl,
    W. D. Allen, H. F. Schaefer, R. A. King, E. F. Valeev, C. D. Sherrill,
    and T. D. Crawford, WIREs Comput. Mol. Sci. 2, 556-565 (2012)
    (doi: 10.1002/wcms.93)

                         Additional Contributions by
    A. E. DePrince, M. Saitow, U. Bozkaya, A. Yu. Sokolov
    -----------------------------------------------------------------------


    Psi4 started on: Wed Feb  3 17:28:13 2016

    Process ID:  19489
    PSI4DATADIR: /home/ajwt3/code/psi4/share/psi
    Memory level set to 256.000 MB

  ==> Input File <==

--------------------------------------------------------------------------
import fcidump

molecule h2o {
    O
    H 1 0.96
    H 1 0.96 2 104.5
}

set {
    basis cc-pVDZ
    scf_type pk
    integrals_file H2O_INTDUMP
}

energy('fcidump')
--------------------------------------------------------------------------
/home/rstf2/psi4-fcidumps/fcidump/fcidump.so loaded.

*** tstart() called on carpathia
*** at Wed Feb  3 17:28:13 2016

    There are an even number of electrons - assuming singlet.
    Specify the multiplicity with the MULTP option in the
    input if this is incorrect


         ---------------------------------------------------------
                                   SCF
            by Justin Turney, Rob Parrish, and Andy Simmonett
                              RHF Reference
                        1 Threads,    256 MiB Core
         ---------------------------------------------------------

  ==> Geometry <==

    Molecular point group: c2v
    Full point group: C2v

    Geometry (in Angstrom), charge = 0, multiplicity = 1:

       Center              X                  Y                   Z       
    ------------   -----------------  -----------------  -----------------
           O          0.000000000000     0.000000000000    -0.065775570538
           H          0.000000000000    -0.759061990794     0.521953018295
           H          0.000000000000     0.759061990794     0.521953018295

  Running in c2v symmetry.

  Rotational constants: A =     27.26297  B =     14.51533  C =      9.47217 [cm^-1]
  Rotational constants: A = 817323.20514  B = 435158.59817  C = 283968.37324 [MHz]
  Nuclear repulsion =    9.168193260387573

  Charge       = 0
  Multiplicity = 1
  Electrons    = 10
  Nalpha       = 5
  Nbeta        = 5

  ==> Algorithm <==

  SCF Algorithm Type is PK.
  DIIS enabled.
  MOM disabled.
  Fractional occupation disabled.
  Guess Type is CORE.
  Energy threshold   = 1.00e-08
  Density threshold  = 1.00e-08
  Integral threshold = 0.00e+00

  ==> Primary Basis <==

  Basis Set: CC-PVDZ
    Number of shells: 12
    Number of basis function: 24
    Number of Cartesian functions: 25
    Spherical Harmonics?: true
    Max angular momentum: 2

  ==> Pre-Iterations <==

   -------------------------------------------------------
    Irrep   Nso     Nmo     Nalpha   Nbeta   Ndocc  Nsocc
   -------------------------------------------------------
     A1        11      11       0       0       0       0
     A2         2       2       0       0       0       0
     B1         4       4       0       0       0       0
     B2         7       7       0       0       0       0
   -------------------------------------------------------
    Total      24      24       5       5       5       0
   -------------------------------------------------------

  Starting with a DF guess...

 OEINTS: Overlap, kinetic, potential, dipole, and quadrupole integrals
         stored in file 35.

  ==> Integral Setup <==

  ==> DFJK: Density-Fitted J/K Matrices <==

    J tasked:                  Yes
    K tasked:                  Yes
    wK tasked:                  No
    OpenMP threads:              1
    Integrals threads:           1
    Memory (MB):               183
    Algorithm:                Core
    Integral Cache:           NONE
    Schwarz Cutoff:          1E-12
    Fitting Condition:       1E-12

   => Auxiliary Basis Set <=

  Basis Set: 
    Number of shells: 42
    Number of basis function: 116
    Number of Cartesian functions: 131
    Spherical Harmonics?: true
    Max angular momentum: 3

  Minimum eigenvalue in the overlap matrix is 3.4377086883E-02.
  Using Symmetric Orthogonalization.
  SCF Guess: Core (One-Electron) Hamiltonian.

  ==> Iterations <==

                           Total Energy        Delta E     RMS |[F,P]|

    Occupation by irrep:
             A1    A2    B1    B2 
    DOCC [     3,    0,    0,    2 ]

   @DF-RHF iter   1:   -68.87679589143156   -6.88768e+01   2.24865e-01 
    Occupation by irrep:
             A1    A2    B1    B2 
    DOCC [     3,    0,    1,    1 ]

   @DF-RHF iter   2:   -69.94739928772461   -1.07060e+00   1.83983e-01 DIIS
   @DF-RHF iter   3:   -75.73846363254438   -5.79106e+00   6.30960e-02 DIIS
   @DF-RHF iter   4:   -76.00166118148449   -2.63198e-01   1.71040e-02 DIIS
   @DF-RHF iter   5:   -76.02634573487845   -2.46846e-02   1.53954e-03 DIIS
   @DF-RHF iter   6:   -76.02659024802973   -2.44513e-04   6.83100e-04 DIIS
   @DF-RHF iter   7:   -76.02663102294817   -4.07749e-05   9.57609e-05 DIIS
   @DF-RHF iter   8:   -76.02663264436086   -1.62141e-06   3.21842e-05 DIIS
   @DF-RHF iter   9:   -76.02663273410420   -8.97433e-08   1.86418e-06 DIIS
   @DF-RHF iter  10:   -76.02663273485521   -7.51015e-10   6.68973e-07 DIIS
   @DF-RHF iter  11:   -76.02663273490421   -4.89990e-11   1.19941e-07 DIIS
   @DF-RHF iter  12:   -76.02663273490565   -1.43530e-12   8.51479e-09 DIIS

  DF guess converged.

  ==> Integral Setup <==

 MINTS: Wrapper to libmints.
   by Justin Turney

   Calculation information:
      Number of atoms:                   3
      Number of AO shells:              12
      Number of SO shells:               9
      Number of primitives:             32
      Number of atomic orbitals:        25
      Number of basis functions:        24

      Number of irreps:                  4
      Integral cutoff                 0.00e+00
      Number of functions per irrep: [  11    2    4    7 ]

 OEINTS: Overlap, kinetic, potential, dipole, and quadrupole integrals
         stored in file 35.

      Computing two-electron integrals...done
      Computed 11616 non-zero two-electron integrals.
        Stored in file 33.

	Batch   1 pq = [       0,     107] index = [             0,5778]
  ==> DiskJK: Disk-Based J/K Matrices <==

    J tasked:                  Yes
    K tasked:                  Yes
    wK tasked:                  No
    Memory (MB):               183
    Schwarz Cutoff:          1E-12

   @RHF iter  13:   -76.02665364896386   -2.09141e-05   1.21114e-05 DIIS
   @RHF iter  14:   -76.02665366127449   -1.23106e-08   1.95129e-06 DIIS
   @RHF iter  15:   -76.02665366165616   -3.81661e-10   3.82616e-07 DIIS
   @RHF iter  16:   -76.02665366166983   -1.36708e-11   1.11764e-07 DIIS
   @RHF iter  17:   -76.02665366167113   -1.30740e-12   4.49779e-08 DIIS
   @RHF iter  18:   -76.02665366167125   -1.13687e-13   4.13293e-09 DIIS

  ==> Post-Iterations <==

    Orbital Energies (a.u.)
    -----------------------

    Doubly Occupied:                                                      

       1A1   -20.550919     2A1    -1.335305     1B2    -0.697799  
       3A1    -0.566090     1B1    -0.492954  

    Virtual:                                                              

       4A1     0.185103     2B2     0.255849     3B2     0.787301  
       5A1     0.851798     6A1     1.163709     2B1     1.200352  
       4B2     1.253479     7A1     1.444918     1A2     1.475588  
       3B1     1.674083     8A1     1.867861     5B2     1.931955  
       6B2     2.446380     9A1     2.483524     4B1     3.283305  
       2A2     3.336169    10A1     3.506961    11A1     3.862825  
       7B2     4.144454  

    Final Occupation by Irrep:
             A1    A2    B1    B2 
    DOCC [     3,    0,    1,    1 ]

  Energy converged.

  @RHF Final Energy:   -76.02665366167125

   => Energetics <=

    Nuclear Repulsion Energy =              9.1681932603875733
    One-Electron Energy =                -123.1035618503201050
    Two-Electron Energy =                  37.9087149282612685
    DFT Exchange-Correlation Energy =       0.0000000000000000
    Empirical Dispersion Energy =           0.0000000000000000
    PCM Polarization Energy =               0.0000000000000000
    EFP Energy =                            0.0000000000000000
    Total Energy =                        -76.0266536616712756

    Alert: EFP and PCM quantities not currently incorporated into SCF psivars.

Properties will be evaluated at   0.000000,   0.000000,   0.000000 Bohr
  ==> Properties <==


Properties computed using the SCF density matrix

  Nuclear Dipole Moment: (a.u.)
     X:     0.0000      Y:     0.0000      Z:     0.9783

  Electronic Dipole Moment: (a.u.)
     X:     0.0000      Y:     0.0000      Z:    -0.1682

  Dipole Moment: (a.u.)
     X:     0.0000      Y:     0.0000      Z:     0.8101     Total:     0.8101

  Dipole Moment: (Debye)
     X:     0.0000      Y:     0.0000      Z:     2.0592     Total:     2.0592


  Saving occupied orbitals to File 180.

*** tstop() called on carpathia at Wed Feb  3 17:28:14 2016
Module time:
	user time   =       0.31 seconds =       0.01 minutes
	system time =       0.01 seconds =       0.00 minutes
	total time  =          1 seconds =       0.02 minutes
Total time:
	user time   =       0.31 seconds =       0.01 minutes
	system time =       0.01 seconds =       0.00 minutes
	total time  =          1 seconds =       0.02 minutes
Reading options from the FCIDUMP block
Calling plugin fcidump.so.
Generating FCIDUMP.
Found RHF
	Presorting SO-basis two-electron integrals.
	Sorting File: SO Ints (nn|nn) nbuckets = 1
	Transforming the one-electron integrals and constructing Fock matrices
	Starting first half-transformation.
	Sorting half-transformed integrals.
	First half integral transformation complete.
	Starting second half-transformation.
	Two-electron integral transformation complete.
    Transformation complete.
  Generating fort.55 integral file..
.Done generating FCIDUMP.

*** PSI4 exiting successfully. Buy a developer a beer!
