 &FCI NORB= 7,NELEC= 10,MS2=  0
  ORBSYM=1,1,3,1,4,1,3,
  ISYM=1 UHF=.FALSE.
 &END
      4.6812543408582  1  1  1  1
    -0.44140078987756  1  2  1  1
     -0.2025580169692  1  4  1  1
     0.26154672673619  1  6  1  1
    -0.44140078987756  1  1  1  2
    0.065168989486074  1  2  1  2
    0.027714379317832  1  4  1  2
   -0.040617912108907  1  6  1  2
   0.0077151213270921  1  3  1  3
    0.011228309121222  1  7  1  3
     -0.2025580169692  1  1  1  4
    0.027714379317832  1  2  1  4
    0.025995607603287  1  4  1  4
  -0.0074383024025919  1  6  1  4
    0.019685115326794  1  5  1  5
     0.26154672673619  1  1  1  6
   -0.040617912108907  1  2  1  6
   -0.007438302402592  1  4  1  6
    0.032224178570033  1  6  1  6
    0.011228309121222  1  3  1  7
     0.01642479896047  1  7  1  7
    -0.44140078987756  2  1  1  1
     0.99582472666405  2  2  1  1
     0.14000223320914  2  4  1  1
    -0.29972702400417  2  6  1  1
    0.065168989486074  2  1  1  2
   -0.017255028900611  2  2  1  2
   -0.010711188174821  2  4  1  2
   0.0094768590204243  2  6  1  2
    0.015855070205529  2  3  1  3
    0.012920140354484  2  7  1  3
    0.027714379317832  2  1  1  4
   -0.017646645590525  2  2  1  4
    0.016414987508427  2  4  1  4
    0.019216151761092  2  6  1  4
    0.030591255004491  2  5  1  5
   -0.040617912108907  2  1  1  6
   0.0054249337089782  2  2  1  6
    0.020586815039687  2  4  1  6
   0.0038716445374154  2  6  1  6
     0.02165352186522  2  3  1  7
    0.017528838125781  2  7  1  7
    0.065168989486074  2  1  2  1
   -0.017255028900611  2  2  2  1
   -0.010711188174821  2  4  2  1
   0.0094768590204243  2  6  2  1
   -0.017255028900611  2  1  2  2
     0.71379604860641  2  2  2  2
  0.00034432565737484  2  4  2  2
    -0.13238097546898  2  6  2  2
     0.14472963570247  2  3  2  3
    0.041915054962128  2  7  2  3
   -0.010711188174821  2  1  2  4
  0.00034432565737483  2  2  2  4
     0.12339833073797  2  4  2  4
    0.022440140810317  2  6  2  4
     0.14277946840962  2  5  2  5
   0.0094768590204242  2  1  2  6
    -0.13238097546898  2  2  2  6
    0.022440140810317  2  4  2  6
    0.097909071260692  2  6  2  6
    0.041915054962128  2  3  2  7
    0.063638698542111  2  7  2  7
     0.76405176997252  3  3  1  1
     0.34974859879251  3  7  1  1
  -0.0047328939204193  3  3  1  2
  -0.0075825241883459  3  7  1  2
   0.0077151213270922  3  1  1  3
    0.015855070205529  3  2  1  3
   0.0026916184899376  3  4  1  3
  -0.0023001558761914  3  6  1  3
  -0.0069758388471048  3  3  1  4
 -0.00032192457713798  3  7  1  4
  0.00075011788751894  3  3  1  6
   0.0074022921092694  3  7  1  6
    0.011228309121222  3  1  1  7
     0.02165352186522  3  2  1  7
   0.0038304233709389  3  4  1  7
  -0.0023331603405388  3  6  1  7
  -0.0047328939204193  3  3  2  1
  -0.0075825241883459  3  7  2  1
     0.62885581945851  3  3  2  2
     0.13940521461172  3  7  2  2
    0.015855070205529  3  1  2  3
     0.14472963570247  3  2  2  3
    -0.02521713502755  3  4  2  3
    0.046307518886664  3  6  2  3
  -0.0086307517657322  3  3  2  4
    0.073079410570787  3  7  2  4
   -0.064997519329431  3  3  2  6
   -0.073339877651397  3  7  2  6
    0.012920140354484  3  1  2  7
    0.041915054962128  3  2  2  7
    0.032432151745901  3  4  2  7
   -0.033234526836411  3  6  2  7
   0.0077151213270922  3  1  3  1
    0.015855070205529  3  2  3  1
   0.0026916184899376  3  4  3  1
  -0.0023001558761914  3  6  3  1
    0.015855070205529  3  1  3  2
     0.14472963570247  3  2  3  2
    -0.02521713502755  3  4  3  2
    0.046307518886664  3  6  3  2
     0.61673247376054  3  3  3  3
     0.08577507838558  3  7  3  3
   0.0026916184899377  3  1  3  4
    -0.02521713502755  3  2  3  4
    0.048245408663175  3  4  3  4
   -0.031557550257256  3  6  3  4
    0.027305183979256  3  5  3  5
  -0.0023001558761914  3  1  3  6
    0.046307518886664  3  2  3  6
   -0.031557550257256  3  4  3  6
    0.074101536830178  3  6  3  6
     0.08577507838558  3  3  3  7
     0.14900440645273  3  7  3  7
     -0.2025580169692  4  1  1  1
     0.14000223320914  4  2  1  1
       0.975766867735  4  4  1  1
      0.2082307840586  4  6  1  1
    0.027714379317832  4  1  1  2
   -0.010711188174821  4  2  1  2
   -0.014709039778734  4  4  1  2
  -0.0011370933079289  4  6  1  2
   0.0026916184899376  4  3  1  3
   0.0086503220874891  4  7  1  3
    0.025995607603287  4  1  1  4
    0.016414987508427  4  2  1  4
    0.008396110211018  4  4  1  4
  -0.0020154714907631  4  6  1  4
    0.012561936036774  4  5  1  5
   -0.007438302402592  4  1  1  6
    0.020586815039687  4  2  1  6
    0.019906723613794  4  4  1  6
  0.00012582055605743  4  6  1  6
   0.0038304233709389  4  3  1  7
    0.012765840182626  4  7  1  7
    0.027714379317832  4  1  2  1
   -0.010711188174821  4  2  2  1
   -0.014709039778734  4  4  2  1
  -0.0011370933079289  4  6  2  1
   -0.017646645590525  4  1  2  2
   0.0003443256573748  4  2  2  2
     0.66466656067387  4  4  2  2
    0.097391629655829  4  6  2  2
    -0.02521713502755  4  3  2  3
    0.076496255570632  4  7  2  3
    0.016414987508427  4  1  2  4
     0.12339833073797  4  2  2  4
     0.10540583431286  4  4  2  4
    0.031560476572272  4  6  2  4
      0.0469896268228  4  5  2  5
    0.019216151761092  4  1  2  6
    0.022440140810317  4  2  2  6
   -0.079503255916978  4  4  2  6
   -0.060876338825536  4  6  2  6
    0.032432151745901  4  3  2  7
    0.018760329428022  4  7  2  7
   0.0026916184899376  4  3  3  1
   0.0086503220874891  4  7  3  1
    -0.02521713502755  4  3  3  2
    0.076496255570632  4  7  3  2
  -0.0069758388471047  4  1  3  3
  -0.0086307517657322  4  2  3  3
     0.58258328547769  4  4  3  3
    0.040944411560176  4  6  3  3
    0.048245408663175  4  3  3  4
  0.00047192571929737  4  7  3  4
   -0.031557550257256  4  3  3  6
    0.046875339332285  4  7  3  6
 -0.00032192457713799  4  1  3  7
    0.073079410570788  4  2  3  7
     0.15795298974421  4  4  3  7
      0.0792254593673  4  6  3  7
    0.025995607603287  4  1  4  1
    0.016414987508427  4  2  4  1
   0.0083961102110179  4  4  4  1
  -0.0020154714907631  4  6  4  1
    0.016414987508427  4  1  4  2
     0.12339833073797  4  2  4  2
     0.10540583431286  4  4  4  2
    0.031560476572272  4  6  4  2
    0.048245408663175  4  3  4  3
  0.00047192571929736  4  7  4  3
    0.008396110211018  4  1  4  4
     0.10540583431286  4  2  4  4
     0.76756447322613  4  4  4  4
     0.12321615839168  4  6  4  4
    0.055639046796585  4  5  4  5
  -0.0020154714907631  4  1  4  6
    0.031560476572272  4  2  4  6
     0.12321615839168  4  4  4  6
    0.072149836090237  4  6  4  6
  0.00047192571929736  4  3  4  7
    0.069555627446861  4  7  4  7
      1.0902480059733  5  5  1  1
    -0.01246664817451  5  5  1  2
  -0.0065951581681518  5  5  1  4
    0.019685115326794  5  1  1  5
    0.030591255004491  5  2  1  5
    0.012561936036774  5  4  1  5
   -0.014576757247612  5  6  1  5
   0.0077828216847894  5  5  1  6
    -0.01246664817451  5  5  2  1
     0.73794531756814  5  5  2  2
    0.070915609514279  5  5  2  4
    0.030591255004491  5  1  2  5
     0.14277946840962  5  2  2  5
      0.0469896268228  5  4  2  5
   -0.058525095129862  5  6  2  5
    -0.15106992804467  5  5  2  6
     0.61246770558414  5  5  3  3
    0.027305183979256  5  3  3  5
    0.024639443662463  5  7  3  5
     0.19157368628437  5  5  3  7
  -0.0065951581681518  5  5  4  1
    0.070915609514279  5  5  4  2
     0.71944611107626  5  5  4  4
    0.012561936036774  5  1  4  5
      0.0469896268228  5  2  4  5
    0.055639046796585  5  4  4  5
 -0.00046724215736817  5  6  4  5
     0.12066649327505  5  5  4  6
    0.019685115326794  5  1  5  1
    0.030591255004491  5  2  5  1
    0.012561936036774  5  4  5  1
   -0.014576757247612  5  6  5  1
    0.030591255004491  5  1  5  2
     0.14277946840962  5  2  5  2
      0.0469896268228  5  4  5  2
   -0.058525095129862  5  6  5  2
    0.027305183979256  5  3  5  3
    0.024639443662463  5  7  5  3
    0.012561936036774  5  1  5  4
      0.0469896268228  5  2  5  4
    0.055639046796585  5  4  5  4
 -0.00046724215736817  5  6  5  4
     0.87907590531399  5  5  5  5
   -0.014576757247612  5  1  5  6
   -0.058525095129862  5  2  5  6
 -0.00046724215736815  5  4  5  6
    0.039495428548395  5  6  5  6
    0.024639443662463  5  3  5  7
      0.0273551028453  5  7  5  7
     0.26154672673619  6  1  1  1
    -0.29972702400417  6  2  1  1
      0.2082307840586  6  4  1  1
     0.79221939973826  6  6  1  1
   -0.040617912108907  6  1  1  2
   0.0094768590204242  6  2  1  2
  -0.0011370933079288  6  4  1  2
  -0.0093630856743262  6  6  1  2
  -0.0023001558761914  6  3  1  3
  -0.0081994230884729  6  7  1  3
   -0.007438302402592  6  1  1  4
    0.019216151761092  6  2  1  4
  -0.0020154714907631  6  4  1  4
   -0.021476517142631  6  6  1  4
   -0.014576757247612  6  5  1  5
    0.032224178570033  6  1  1  6
   0.0038716445374155  6  2  1  6
  0.00012582055605739  6  4  1  6
  -0.0059206794161641  6  6  1  6
  -0.0023331603405388  6  3  1  7
   -0.012098787131261  6  7  1  7
   -0.040617912108907  6  1  2  1
   0.0094768590204242  6  2  2  1
  -0.0011370933079288  6  4  2  1
  -0.0093630856743262  6  6  2  1
   0.0054249337089782  6  1  2  2
    -0.13238097546898  6  2  2  2
    0.097391629655829  6  4  2  2
     0.60448522076524  6  6  2  2
    0.046307518886664  6  3  2  3
   -0.097662131879359  6  7  2  3
    0.020586815039687  6  1  2  4
    0.022440140810317  6  2  2  4
    0.031560476572272  6  4  2  4
   -0.055834728222009  6  6  2  4
   -0.058525095129862  6  5  2  5
   0.0038716445374155  6  1  2  6
    0.097909071260692  6  2  2  6
   -0.060876338825536  6  4  2  6
    -0.09454457058166  6  6  2  6
   -0.033234526836411  6  3  2  7
   0.0048133804253962  6  7  2  7
  -0.0023001558761914  6  3  3  1
  -0.0081994230884729  6  7  3  1
    0.046307518886664  6  3  3  2
   -0.097662131879359  6  7  3  2
  0.00075011788751894  6  1  3  3
   -0.064997519329431  6  2  3  3
    0.040944411560176  6  4  3  3
     0.56054664350626  6  6  3  3
   -0.031557550257256  6  3  3  4
    0.049171764480412  6  7  3  4
    0.074101536830178  6  3  3  6
   -0.064032846174394  6  7  3  6
   0.0074022921092694  6  1  3  7
   -0.073339877651397  6  2  3  7
      0.0792254593673  6  4  3  7
    0.043758016419963  6  6  3  7
   -0.007438302402592  6  1  4  1
    0.019216151761092  6  2  4  1
  -0.0020154714907631  6  4  4  1
    -0.02147651714263  6  6  4  1
    0.020586815039687  6  1  4  2
    0.022440140810317  6  2  4  2
    0.031560476572272  6  4  4  2
   -0.055834728222009  6  6  4  2
   -0.031557550257256  6  3  4  3
    0.049171764480412  6  7  4  3
    0.019906723613794  6  1  4  4
   -0.079503255916978  6  2  4  4
     0.12321615839168  6  4  4  4
     0.54331322576944  6  6  4  4
 -0.00046724215736816  6  5  4  5
   0.0001258205560574  6  1  4  6
   -0.060876338825536  6  2  4  6
    0.072149836090237  6  4  4  6
    0.049621509589664  6  6  4  6
    0.046875339332285  6  3  4  7
   -0.054530863496093  6  7  4  7
   -0.014576757247612  6  5  5  1
   -0.058525095129862  6  5  5  2
 -0.00046724215736817  6  5  5  4
   0.0077828216847894  6  1  5  5
    -0.15106992804467  6  2  5  5
     0.12066649327505  6  4  5  5
     0.58504393277007  6  6  5  5
    0.039495428548395  6  5  5  6
    0.032224178570033  6  1  6  1
   0.0038716445374155  6  2  6  1
   0.0001258205560574  6  4  6  1
   -0.005920679416164  6  6  6  1
   0.0038716445374155  6  1  6  2
    0.097909071260692  6  2  6  2
   -0.060876338825536  6  4  6  2
    -0.09454457058166  6  6  6  2
    0.074101536830178  6  3  6  3
   -0.064032846174394  6  7  6  3
  0.00012582055605741  6  1  6  4
   -0.060876338825536  6  2  6  4
    0.072149836090237  6  4  6  4
    0.049621509589664  6  6  6  4
    0.039495428548395  6  5  6  5
  -0.0059206794161639  6  1  6  6
    -0.09454457058166  6  2  6  6
    0.049621509589664  6  4  6  6
      0.5897895128574  6  6  6  6
   -0.064032846174394  6  3  6  7
     0.10861754429013  6  7  6  7
     0.34974859879251  7  3  1  1
     0.86673371374989  7  7  1  1
  -0.0075825241883459  7  3  1  2
   -0.010302320849751  7  7  1  2
    0.011228309121222  7  1  1  3
    0.012920140354484  7  2  1  3
   0.0086503220874891  7  4  1  3
  -0.0081994230884729  7  6  1  3
   -0.000321924577138  7  3  1  4
  -0.0050161996064706  7  7  1  4
   0.0074022921092694  7  3  1  6
    0.006163694950548  7  7  1  6
     0.01642479896047  7  1  1  7
    0.017528838125781  7  2  1  7
    0.012765840182626  7  4  1  7
   -0.012098787131261  7  6  1  7
  -0.0075825241883459  7  3  2  1
   -0.010302320849751  7  7  2  1
     0.13940521461172  7  3  2  2
     0.62258901068712  7  7  2  2
     0.02165352186522  7  1  2  3
    0.041915054962128  7  2  2  3
    0.076496255570632  7  4  2  3
   -0.097662131879359  7  6  2  3
    0.073079410570788  7  3  2  4
    0.021068957556129  7  7  2  4
   -0.073339877651397  7  3  2  6
   -0.069403480772041  7  7  2  6
    0.017528838125781  7  1  2  7
    0.063638698542111  7  2  2  7
    0.018760329428022  7  4  2  7
   0.0048133804253962  7  6  2  7
    0.011228309121222  7  1  3  1
    0.012920140354484  7  2  3  1
   0.0086503220874891  7  4  3  1
  -0.0081994230884729  7  6  3  1
     0.02165352186522  7  1  3  2
    0.041915054962128  7  2  3  2
    0.076496255570632  7  4  3  2
   -0.097662131879359  7  6  3  2
     0.08577507838558  7  3  3  3
     0.60179392203447  7  7  3  3
   0.0038304233709389  7  1  3  4
    0.032432151745901  7  2  3  4
  0.00047192571929736  7  4  3  4
    0.049171764480412  7  6  3  4
    0.024639443662463  7  5  3  5
  -0.0023331603405388  7  1  3  6
   -0.033234526836411  7  2  3  6
    0.046875339332285  7  4  3  6
   -0.064032846174394  7  6  3  6
     0.14900440645273  7  3  3  7
     0.10851950609878  7  7  3  7
 -0.00032192457713799  7  3  4  1
  -0.0050161996064707  7  7  4  1
    0.073079410570788  7  3  4  2
    0.021068957556129  7  7  4  2
   0.0038304233709389  7  1  4  3
    0.032432151745901  7  2  4  3
  0.00047192571929736  7  4  4  3
    0.049171764480412  7  6  4  3
     0.15795298974421  7  3  4  4
     0.60812157141619  7  7  4  4
      0.0792254593673  7  3  4  6
    0.049756118359907  7  7  4  6
    0.012765840182626  7  1  4  7
    0.018760329428022  7  2  4  7
    0.069555627446861  7  4  4  7
   -0.054530863496093  7  6  4  7
    0.024639443662463  7  5  5  3
     0.19157368628437  7  3  5  5
      0.6316445947783  7  7  5  5
      0.0273551028453  7  5  5  7
   0.0074022921092694  7  3  6  1
   0.0061636949505481  7  7  6  1
   -0.073339877651397  7  3  6  2
   -0.069403480772041  7  7  6  2
  -0.0023331603405388  7  1  6  3
   -0.033234526836411  7  2  6  3
    0.046875339332285  7  4  6  3
   -0.064032846174394  7  6  6  3
      0.0792254593673  7  3  6  4
    0.049756118359907  7  7  6  4
    0.043758016419963  7  3  6  6
     0.55763052319834  7  7  6  6
   -0.012098787131261  7  1  6  7
   0.0048133804253963  7  2  6  7
   -0.054530863496093  7  4  6  7
     0.10861754429013  7  6  6  7
     0.01642479896047  7  1  7  1
    0.017528838125781  7  2  7  1
    0.012765840182626  7  4  7  1
   -0.012098787131261  7  6  7  1
    0.017528838125781  7  1  7  2
    0.063638698542111  7  2  7  2
    0.018760329428022  7  4  7  2
   0.0048133804253962  7  6  7  2
     0.14900440645273  7  3  7  3
     0.10851950609878  7  7  7  3
    0.012765840182626  7  1  7  4
    0.018760329428022  7  2  7  4
    0.069555627446861  7  4  7  4
   -0.054530863496093  7  6  7  4
      0.0273551028453  7  5  7  5
   -0.012098787131261  7  1  7  6
   0.0048133804253964  7  2  7  6
   -0.054530863496093  7  4  7  6
     0.10861754429013  7  6  7  6
     0.10851950609878  7  3  7  7
     0.62161397389706  7  7  7  7
     -31.797348898495  1  1  0  0
     0.58533429524393  1  2  0  0
     0.26113955832163  1  4  0  0
    -0.33869144612048  1  6  0  0
     0.58533429524393  2  1  0  0
     -7.5174008266503  2  2  0  0
    -0.46083747077253  2  4  0  0
      1.3017014182796  2  6  0  0
     -6.1653832326906  3  3  0  0
     -1.6848813237861  3  7  0  0
     0.26113955832163  4  1  0  0
    -0.46083747077253  4  2  0  0
     -6.8035290330793  4  4  0  0
     -1.0747057494979  4  6  0  0
     -7.3015490286038  5  5  0  0
    -0.33869144612048  6  1  0  0
      1.3017014182796  6  2  0  0
     -1.0747057494979  6  4  0  0
     -5.2446307600462  6  6  0  0
     -1.6848813237861  7  3  0  0
     -5.5499715307125  7  7  0  0
       9.009352032085  0  0  0  0
