 &FCI NORB=  6,NELEC=  6,MS2= 0,
  ORBSYM=1,1,1,5,5,5,
  ISYM=1,
 /
  0.3748047494839098E+00   1   1   1   1
 -0.7254738854893263E-01   2   1   1   1
  0.1046011321622770E+00   2   1   2   1
  0.3220510950108936E+00   2   2   1   1
 -0.2279385762445942E-01   2   2   2   1
  0.3266622483173179E+00   2   2   2   2
  0.6892943378571456E-02   3   1   1   1
  0.3010625294781142E-01   3   1   2   1
 -0.1761479364192892E-01   3   1   2   2
  0.5582905241422080E-01   3   1   3   1
  0.7151007080274367E-01   3   2   1   1
 -0.5875267423345237E-01   3   2   2   1
  0.7804909023020105E-02   3   2   2   2
  0.2935388634297842E-01   3   2   3   1
  0.8489109276803314E-01   3   2   3   2
  0.3106266386834857E+00   3   3   1   1
  0.3075114032696136E-01   3   3   2   1
  0.3126326265879897E+00   3   3   2   2
  0.3339504443941504E-01   3   3   3   1
  0.9157433813420254E-02   3   3   3   2
  0.3618376460754850E+00   3   3   3   3
  0.2992924430146207E+00   4   4   1   1
  0.3565244349944234E-01   4   4   2   1
  0.3017070257746722E+00   4   4   2   2
  0.3408779826964210E-01   4   4   3   1
  0.7535708030350030E-02   4   4   3   2
  0.3428921605654565E+00   4   4   3   3
  0.3361954110937171E+00   4   4   4   4
 -0.6916998872828876E-01   5   4   1   1
  0.5737192158767623E-01   5   4   2   1
 -0.6860902580483191E-03   5   4   2   2
 -0.3297676972683842E-01   5   4   3   1
 -0.8059400039763301E-01   5   4   3   2
 -0.7631191495418774E-02   5   4   3   3
 -0.5690982617758879E-02   5   4   4   4
  0.8390140556271175E-01   5   4   5   4
  0.3258844470459137E+00   5   5   1   1
 -0.2304354067086530E-01   5   5   2   1
  0.3235297060332740E+00   5   5   2   2
 -0.1256663426464417E-01   5   5   3   1
  0.4902976440654266E-02   5   5   3   2
  0.3181350989601599E+00   5   5   3   3
  0.3044056907029729E+00   5   5   4   4
 -0.7214761889774733E-02   5   5   5   4
  0.3335399842197065E+00   5   5   5   5
 -0.8016081688526477E-02   6   4   1   1
 -0.2926234427353900E-01   6   4   2   1
  0.1283743654167205E-01   6   4   2   2
 -0.5331382891314471E-01   6   4   3   1
 -0.3225645518045278E-01   6   4   3   2
 -0.3506081499433076E-01   6   4   3   3
 -0.3496160408549613E-01   6   4   4   4
  0.3023062018278115E-01   6   4   5   4
  0.1496355181593005E-01   6   4   5   5
  0.5522819000738760E-01   6   4   6   4
 -0.7535930864833892E-01   6   5   1   1
  0.1035453090562164E+00   6   5   2   1
 -0.2430545797239413E-01   6   5   2   2
  0.2858398661937123E-01   6   5   3   1
 -0.6138890262914115E-01   6   5   3   2
  0.3343439135660726E-01   6   5   3   3
  0.3152375107170817E-01   6   5   4   4
  0.6001420298027008E-01   6   5   5   4
 -0.2542532759737418E-01   6   5   5   5
 -0.2916515954288756E-01   6   5   6   4
  0.1112888438961785E+00   6   5   6   5
  0.3950432336729082E+00   6   6   1   1
 -0.7640604512591165E-01   6   6   2   1
  0.3423040112270139E+00   6   6   2   2
  0.7628278921201187E-02   6   6   3   1
  0.7817578559425034E-01   6   6   3   2
  0.3353588759946567E+00   6   6   3   3
  0.3168689571514748E+00   6   6   4   4
 -0.7391163564774200E-01   6   6   5   4
  0.3487523071649287E+00   6   6   5   5
 -0.9415835499995192E-02   6   6   6   4
 -0.8333088014955151E-01   6   6   6   5
  0.4333526348527527E+00   6   6   6   6
  0.1269082306679015E+00   4   1   4   1
  0.9781643321250545E-01   4   2   4   1
  0.1206681561972947E+00   4   2   4   2
  0.3861253196186076E-01   4   3   4   1
 -0.2316539346265972E-02   4   3   4   2
  0.9273802539248267E-01   4   3   4   3
 -0.4716270469503586E-01   5   1   4   1
  0.1748498038719402E-01   5   1   4   2
 -0.5335608036176322E-01   5   1   4   3
  0.8216095276527489E-01   5   1   5   1
  0.7620375273211920E-01   5   2   4   1
  0.7318864923502021E-01   5   2   4   2
 -0.4246718938473566E-01   5   2   4   3
 -0.1127789290753053E-01   5   2   5   1
  0.1046713887814898E+00   5   2   5   2
 -0.9987157904242590E-01   5   3   4   1
 -0.1176802886645549E+00   5   3   4   2
  0.1550148940782856E-02   5   3   4   3
 -0.1217190455600593E-01   5   3   5   1
 -0.7519681336285849E-01   5   3   5   2
  0.1244873596663618E+00   5   3   5   3
  0.1042071035552075E-02   6   1   4   1
 -0.2376841340427287E-01   6   1   4   2
 -0.3993528030155247E-01   6   1   4   3
 -0.3014652685505465E-01   6   1   5   1
  0.4969066697263663E-01   6   1   5   2
  0.2217612595210245E-01   6   1   5   3
  0.7415533162279667E-01   6   1   6   1
 -0.4791740450042824E-01   6   2   4   1
  0.1274474157599223E-01   6   2   4   2
 -0.5422057913526729E-01   6   2   4   3
  0.7917403453255575E-01   6   2   5   1
 -0.1194377620485183E-01   6   2   5   2
 -0.1425323059891191E-01   6   2   5   3
 -0.2912007130052340E-01   6   2   6   1
  0.8316112357311871E-01   6   2   6   2
 -0.1310750511878767E+00   6   3   4   1
 -0.1033580235824042E+00   6   3   4   2
 -0.4000784782424859E-01   6   3   4   3
  0.4789612143127996E-01   6   3   5   1
 -0.8126778288230968E-01   6   3   5   2
  0.1075676594455806E+00   6   3   5   3
 -0.1225372662984892E-02   6   3   6   1
  0.5171782467950208E-01   6   3   6   2
  0.1451531589109662E+00   6   3   6   3
 -0.1921870870191288E+01   1   1   0   0
  0.1218527923870125E+00   2   1   0   0
 -0.1643916026136180E+01   2   2   0   0
 -0.5997909501163676E-01   3   1   0   0
 -0.1381067574577876E+00   3   2   0   0
 -0.1317087793622843E+01   3   3   0   0
 -0.1734206873001087E+01   4   4   0   0
  0.1714290840083579E+00   5   4   0   0
 -0.1503623592134539E+01   5   5   0   0
  0.3910571027800028E-01   6   4   0   0
  0.1244223482209248E+00   6   5   0   0
 -0.1281064718774217E+01   6   6   0   0
 -5.3588840748652833E-01   1   0   0   0
 -2.9500682460730226E-01   2   0   0   0
  3.8175688747628433E-01   3   0   0   0
 -4.4358891119398036E-01   4   0   0   0
  1.3328234832030561E-01   5   0   0   0
  6.1482304012527389E-01   6   0   0   0
  0.3624999738000516E+01   0   0   0   0
