 &FCI NORB= 7,NELEC= 10,MS2=  0
  ORBSYM=1,1,3,1,4,1,3,
  ISYM=1 UHF=.FALSE.
 &END
(4.68125434085820,0.00000000000000)   1   1   1   1
(0.00000000000000,-0.44140078987756)   1   2   1   1
(0.00000000000000,-0.20255801696920)   1   4   1   1
(0.00000000000000,0.26154672673619)   1   6   1   1
(0.00000000000000,-0.44140078987756)   1   1   1   2
(-0.06516898948607,0.00000000000000)   1   2   1   2
(0.06516898948607,-0.00000000000000)   1   2   2   1
(-0.02771437931783,0.00000000000000)   1   4   1   2
(0.02771437931783,-0.00000000000000)   1   4   2   1
(0.04061791210891,0.00000000000000)   1   6   1   2
(-0.04061791210891,-0.00000000000000)   1   6   2   1
(0.00771512132709,0.00000000000000)   1   3   1   3
(0.00771512132709,0.00000000000000)   1   3   3   1
(0.01122830912122,0.00000000000000)   1   7   1   3
(0.01122830912122,0.00000000000000)   1   7   3   1
(0.00000000000000,-0.20255801696920)   1   1   1   4
(-0.02771437931783,0.00000000000000)   1   2   1   4
(0.02771437931783,-0.00000000000000)   1   2   4   1
(-0.02599560760329,0.00000000000000)   1   4   1   4
(0.02599560760329,-0.00000000000000)   1   4   4   1
(0.00743830240259,0.00000000000000)   1   6   1   4
(-0.00743830240259,-0.00000000000000)   1   6   4   1
(0.01968511532679,0.00000000000000)   1   5   1   5
(0.01968511532679,0.00000000000000)   1   5   5   1
(0.00000000000000,0.26154672673619)   1   1   1   6
(0.04061791210891,0.00000000000000)   1   2   1   6
(-0.04061791210891,-0.00000000000000)   1   2   6   1
(0.00743830240259,0.00000000000000)   1   4   1   6
(-0.00743830240259,-0.00000000000000)   1   4   6   1
(-0.03222417857003,0.00000000000000)   1   6   1   6
(0.03222417857003,-0.00000000000000)   1   6   6   1
(0.01122830912122,0.00000000000000)   1   3   1   7
(0.01122830912122,0.00000000000000)   1   3   7   1
(0.01642479896047,0.00000000000000)   1   7   1   7
(0.01642479896047,0.00000000000000)   1   7   7   1
(0.00000000000000,0.44140078987756)   2   1   1   1
(0.99582472666405,0.00000000000000)   2   2   1   1
(0.14000223320914,0.00000000000000)   2   4   1   1
(-0.29972702400417,0.00000000000000)   2   6   1   1
(0.06516898948607,0.00000000000000)   2   1   1   2
(-0.06516898948607,-0.00000000000000)   2   1   2   1
(0.00000000000000,-0.01725502890061)   2   2   1   2
(0.00000000000000,-0.01071118817482)   2   4   1   2
(-0.00000000000000,0.01071118817482)   2   4   2   1
(0.00000000000000,0.00947685902042)   2   6   1   2
(-0.00000000000000,-0.00947685902042)   2   6   2   1
(0.00000000000000,-0.01585507020553)   2   3   1   3
(0.00000000000000,-0.01585507020553)   2   3   3   1
(0.00000000000000,-0.01292014035448)   2   7   1   3
(0.00000000000000,-0.01292014035448)   2   7   3   1
(0.02771437931783,0.00000000000000)   2   1   1   4
(-0.02771437931783,-0.00000000000000)   2   1   4   1
(0.00000000000000,-0.01764664559052)   2   2   1   4
(0.00000000000000,0.01641498750843)   2   4   1   4
(-0.00000000000000,-0.01641498750843)   2   4   4   1
(0.00000000000000,0.01921615176109)   2   6   1   4
(-0.00000000000000,-0.01921615176109)   2   6   4   1
(0.00000000000000,-0.03059125500449)   2   5   1   5
(0.00000000000000,-0.03059125500449)   2   5   5   1
(-0.04061791210891,0.00000000000000)   2   1   1   6
(0.04061791210891,-0.00000000000000)   2   1   6   1
(0.00000000000000,0.00542493370898)   2   2   1   6
(0.00000000000000,0.02058681503969)   2   4   1   6
(-0.00000000000000,-0.02058681503969)   2   4   6   1
(0.00000000000000,0.00387164453742)   2   6   1   6
(-0.00000000000000,-0.00387164453742)   2   6   6   1
(0.00000000000000,-0.02165352186522)   2   3   1   7
(0.00000000000000,-0.02165352186522)   2   3   7   1
(0.00000000000000,-0.01752883812578)   2   7   1   7
(0.00000000000000,-0.01752883812578)   2   7   7   1
(-0.06516898948607,0.00000000000000)   2   1   2   1
(0.06516898948607,-0.00000000000000)   2   1   1   2
(0.00000000000000,0.01725502890061)   2   2   2   1
(0.00000000000000,0.01071118817482)   2   4   2   1
(-0.00000000000000,-0.01071118817482)   2   4   1   2
(0.00000000000000,-0.00947685902042)   2   6   2   1
(-0.00000000000000,0.00947685902042)   2   6   1   2
(0.00000000000000,0.01725502890061)   2   1   2   2
(0.71379604860641,0.00000000000000)   2   2   2   2
(0.00034432565737,0.00000000000000)   2   4   2   2
(-0.13238097546898,0.00000000000000)   2   6   2   2
(-0.14472963570247,0.00000000000000)   2   3   2   3
(0.14472963570247,-0.00000000000000)   2   3   3   2
(-0.04191505496213,0.00000000000000)   2   7   2   3
(0.04191505496213,-0.00000000000000)   2   7   3   2
(0.00000000000000,0.01071118817482)   2   1   2   4
(0.00000000000000,0.01071118817482)   2   1   4   2
(0.00034432565737,0.00000000000000)   2   2   2   4
(0.12339833073797,0.00000000000000)   2   4   2   4
(0.12339833073797,0.00000000000000)   2   4   4   2
(0.02244014081032,0.00000000000000)   2   6   2   4
(0.02244014081032,0.00000000000000)   2   6   4   2
(-0.14277946840962,0.00000000000000)   2   5   2   5
(0.14277946840962,-0.00000000000000)   2   5   5   2
(0.00000000000000,-0.00947685902042)   2   1   2   6
(0.00000000000000,-0.00947685902042)   2   1   6   2
(-0.13238097546898,0.00000000000000)   2   2   2   6
(0.02244014081032,0.00000000000000)   2   4   2   6
(0.02244014081032,0.00000000000000)   2   4   6   2
(0.09790907126069,0.00000000000000)   2   6   2   6
(0.09790907126069,0.00000000000000)   2   6   6   2
(-0.04191505496213,0.00000000000000)   2   3   2   7
(0.04191505496213,-0.00000000000000)   2   3   7   2
(-0.06363869854211,0.00000000000000)   2   7   2   7
(0.06363869854211,-0.00000000000000)   2   7   7   2
(0.76405176997252,0.00000000000000)   3   3   1   1
(0.34974859879251,0.00000000000000)   3   7   1   1
(0.00000000000000,-0.00473289392042)   3   3   1   2
(0.00000000000000,-0.00758252418835)   3   7   1   2
(-0.00000000000000,0.00758252418835)   3   7   2   1
(0.00771512132709,0.00000000000000)   3   1   1   3
(0.00771512132709,0.00000000000000)   3   1   3   1
(0.00000000000000,0.01585507020553)   3   2   1   3
(0.00000000000000,0.01585507020553)   3   2   3   1
(0.00000000000000,0.00269161848994)   3   4   1   3
(0.00000000000000,0.00269161848994)   3   4   3   1
(0.00000000000000,-0.00230015587619)   3   6   1   3
(0.00000000000000,-0.00230015587619)   3   6   3   1
(0.00000000000000,-0.00697583884710)   3   3   1   4
(0.00000000000000,-0.00032192457714)   3   7   1   4
(-0.00000000000000,0.00032192457714)   3   7   4   1
(0.00000000000000,0.00075011788752)   3   3   1   6
(0.00000000000000,0.00740229210927)   3   7   1   6
(-0.00000000000000,-0.00740229210927)   3   7   6   1
(0.01122830912122,0.00000000000000)   3   1   1   7
(0.01122830912122,0.00000000000000)   3   1   7   1
(0.00000000000000,0.02165352186522)   3   2   1   7
(0.00000000000000,0.02165352186522)   3   2   7   1
(0.00000000000000,0.00383042337094)   3   4   1   7
(0.00000000000000,0.00383042337094)   3   4   7   1
(0.00000000000000,-0.00233316034054)   3   6   1   7
(0.00000000000000,-0.00233316034054)   3   6   7   1
(0.00000000000000,0.00473289392042)   3   3   2   1
(0.00000000000000,0.00758252418835)   3   7   2   1
(-0.00000000000000,-0.00758252418835)   3   7   1   2
(0.62885581945851,0.00000000000000)   3   3   2   2
(0.13940521461172,0.00000000000000)   3   7   2   2
(0.00000000000000,-0.01585507020553)   3   1   2   3
(-0.00000000000000,0.01585507020553)   3   1   3   2
(0.14472963570247,0.00000000000000)   3   2   2   3
(-0.14472963570247,-0.00000000000000)   3   2   3   2
(-0.02521713502755,0.00000000000000)   3   4   2   3
(0.02521713502755,-0.00000000000000)   3   4   3   2
(0.04630751888666,0.00000000000000)   3   6   2   3
(-0.04630751888666,-0.00000000000000)   3   6   3   2
(-0.00863075176573,0.00000000000000)   3   3   2   4
(0.07307941057079,0.00000000000000)   3   7   2   4
(0.07307941057079,0.00000000000000)   3   7   4   2
(-0.06499751932943,0.00000000000000)   3   3   2   6
(-0.07333987765140,0.00000000000000)   3   7   2   6
(-0.07333987765140,0.00000000000000)   3   7   6   2
(0.00000000000000,-0.01292014035448)   3   1   2   7
(-0.00000000000000,0.01292014035448)   3   1   7   2
(0.04191505496213,0.00000000000000)   3   2   2   7
(-0.04191505496213,-0.00000000000000)   3   2   7   2
(0.03243215174590,0.00000000000000)   3   4   2   7
(-0.03243215174590,-0.00000000000000)   3   4   7   2
(-0.03323452683641,0.00000000000000)   3   6   2   7
(0.03323452683641,-0.00000000000000)   3   6   7   2
(0.00771512132709,0.00000000000000)   3   1   3   1
(0.00771512132709,0.00000000000000)   3   1   1   3
(0.00000000000000,0.01585507020553)   3   2   3   1
(0.00000000000000,0.01585507020553)   3   2   1   3
(0.00000000000000,0.00269161848994)   3   4   3   1
(0.00000000000000,0.00269161848994)   3   4   1   3
(0.00000000000000,-0.00230015587619)   3   6   3   1
(0.00000000000000,-0.00230015587619)   3   6   1   3
(0.00000000000000,0.01585507020553)   3   1   3   2
(-0.00000000000000,-0.01585507020553)   3   1   2   3
(-0.14472963570247,0.00000000000000)   3   2   3   2
(0.14472963570247,-0.00000000000000)   3   2   2   3
(0.02521713502755,0.00000000000000)   3   4   3   2
(-0.02521713502755,-0.00000000000000)   3   4   2   3
(-0.04630751888666,0.00000000000000)   3   6   3   2
(0.04630751888666,-0.00000000000000)   3   6   2   3
(0.61673247376054,0.00000000000000)   3   3   3   3
(0.08577507838558,0.00000000000000)   3   7   3   3
(0.00000000000000,0.00269161848994)   3   1   3   4
(-0.00000000000000,-0.00269161848994)   3   1   4   3
(0.02521713502755,0.00000000000000)   3   2   3   4
(-0.02521713502755,-0.00000000000000)   3   2   4   3
(-0.04824540866317,0.00000000000000)   3   4   3   4
(0.04824540866317,-0.00000000000000)   3   4   4   3
(0.03155755025726,0.00000000000000)   3   6   3   4
(-0.03155755025726,-0.00000000000000)   3   6   4   3
(0.02730518397926,0.00000000000000)   3   5   3   5
(0.02730518397926,0.00000000000000)   3   5   5   3
(0.00000000000000,-0.00230015587619)   3   1   3   6
(-0.00000000000000,0.00230015587619)   3   1   6   3
(-0.04630751888666,0.00000000000000)   3   2   3   6
(0.04630751888666,-0.00000000000000)   3   2   6   3
(0.03155755025726,0.00000000000000)   3   4   3   6
(-0.03155755025726,-0.00000000000000)   3   4   6   3
(-0.07410153683018,0.00000000000000)   3   6   3   6
(0.07410153683018,-0.00000000000000)   3   6   6   3
(0.08577507838558,0.00000000000000)   3   3   3   7
(0.14900440645273,0.00000000000000)   3   7   3   7
(0.14900440645273,0.00000000000000)   3   7   7   3
(0.00000000000000,0.20255801696920)   4   1   1   1
(0.14000223320914,0.00000000000000)   4   2   1   1
(0.97576686773500,0.00000000000000)   4   4   1   1
(0.20823078405860,0.00000000000000)   4   6   1   1
(0.02771437931783,0.00000000000000)   4   1   1   2
(-0.02771437931783,-0.00000000000000)   4   1   2   1
(0.00000000000000,-0.01071118817482)   4   2   1   2
(-0.00000000000000,0.01071118817482)   4   2   2   1
(0.00000000000000,-0.01470903977873)   4   4   1   2
(0.00000000000000,-0.00113709330793)   4   6   1   2
(-0.00000000000000,0.00113709330793)   4   6   2   1
(0.00000000000000,-0.00269161848994)   4   3   1   3
(0.00000000000000,-0.00269161848994)   4   3   3   1
(0.00000000000000,-0.00865032208749)   4   7   1   3
(0.00000000000000,-0.00865032208749)   4   7   3   1
(0.02599560760329,0.00000000000000)   4   1   1   4
(-0.02599560760329,-0.00000000000000)   4   1   4   1
(0.00000000000000,0.01641498750843)   4   2   1   4
(-0.00000000000000,-0.01641498750843)   4   2   4   1
(0.00000000000000,0.00839611021102)   4   4   1   4
(0.00000000000000,-0.00201547149076)   4   6   1   4
(-0.00000000000000,0.00201547149076)   4   6   4   1
(0.00000000000000,-0.01256193603677)   4   5   1   5
(0.00000000000000,-0.01256193603677)   4   5   5   1
(-0.00743830240259,0.00000000000000)   4   1   1   6
(0.00743830240259,-0.00000000000000)   4   1   6   1
(0.00000000000000,0.02058681503969)   4   2   1   6
(-0.00000000000000,-0.02058681503969)   4   2   6   1
(0.00000000000000,0.01990672361379)   4   4   1   6
(0.00000000000000,0.00012582055606)   4   6   1   6
(-0.00000000000000,-0.00012582055606)   4   6   6   1
(0.00000000000000,-0.00383042337094)   4   3   1   7
(0.00000000000000,-0.00383042337094)   4   3   7   1
(0.00000000000000,-0.01276584018263)   4   7   1   7
(0.00000000000000,-0.01276584018263)   4   7   7   1
(-0.02771437931783,0.00000000000000)   4   1   2   1
(0.02771437931783,-0.00000000000000)   4   1   1   2
(0.00000000000000,0.01071118817482)   4   2   2   1
(-0.00000000000000,-0.01071118817482)   4   2   1   2
(0.00000000000000,0.01470903977873)   4   4   2   1
(0.00000000000000,0.00113709330793)   4   6   2   1
(-0.00000000000000,-0.00113709330793)   4   6   1   2
(0.00000000000000,0.01764664559052)   4   1   2   2
(0.00034432565737,0.00000000000000)   4   2   2   2
(0.66466656067387,0.00000000000000)   4   4   2   2
(0.09739162965583,0.00000000000000)   4   6   2   2
(0.02521713502755,0.00000000000000)   4   3   2   3
(-0.02521713502755,-0.00000000000000)   4   3   3   2
(-0.07649625557063,0.00000000000000)   4   7   2   3
(0.07649625557063,-0.00000000000000)   4   7   3   2
(0.00000000000000,-0.01641498750843)   4   1   2   4
(0.00000000000000,-0.01641498750843)   4   1   4   2
(0.12339833073797,0.00000000000000)   4   2   2   4
(0.12339833073797,0.00000000000000)   4   2   4   2
(0.10540583431286,0.00000000000000)   4   4   2   4
(0.03156047657227,0.00000000000000)   4   6   2   4
(0.03156047657227,0.00000000000000)   4   6   4   2
(-0.04698962682280,0.00000000000000)   4   5   2   5
(0.04698962682280,-0.00000000000000)   4   5   5   2
(0.00000000000000,-0.01921615176109)   4   1   2   6
(0.00000000000000,-0.01921615176109)   4   1   6   2
(0.02244014081032,0.00000000000000)   4   2   2   6
(0.02244014081032,0.00000000000000)   4   2   6   2
(-0.07950325591698,0.00000000000000)   4   4   2   6
(-0.06087633882554,0.00000000000000)   4   6   2   6
(-0.06087633882554,0.00000000000000)   4   6   6   2
(-0.03243215174590,0.00000000000000)   4   3   2   7
(0.03243215174590,-0.00000000000000)   4   3   7   2
(-0.01876032942802,0.00000000000000)   4   7   2   7
(0.01876032942802,-0.00000000000000)   4   7   7   2
(0.00000000000000,-0.00269161848994)   4   3   3   1
(0.00000000000000,-0.00269161848994)   4   3   1   3
(0.00000000000000,-0.00865032208749)   4   7   3   1
(0.00000000000000,-0.00865032208749)   4   7   1   3
(-0.02521713502755,0.00000000000000)   4   3   3   2
(0.02521713502755,-0.00000000000000)   4   3   2   3
(0.07649625557063,0.00000000000000)   4   7   3   2
(-0.07649625557063,-0.00000000000000)   4   7   2   3
(0.00000000000000,0.00697583884710)   4   1   3   3
(-0.00863075176573,0.00000000000000)   4   2   3   3
(0.58258328547769,0.00000000000000)   4   4   3   3
(0.04094441156018,0.00000000000000)   4   6   3   3
(0.04824540866317,0.00000000000000)   4   3   3   4
(-0.04824540866317,-0.00000000000000)   4   3   4   3
(0.00047192571930,0.00000000000000)   4   7   3   4
(-0.00047192571930,-0.00000000000000)   4   7   4   3
(-0.03155755025726,0.00000000000000)   4   3   3   6
(0.03155755025726,-0.00000000000000)   4   3   6   3
(0.04687533933229,0.00000000000000)   4   7   3   6
(-0.04687533933229,-0.00000000000000)   4   7   6   3
(0.00000000000000,0.00032192457714)   4   1   3   7
(0.00000000000000,0.00032192457714)   4   1   7   3
(0.07307941057079,0.00000000000000)   4   2   3   7
(0.07307941057079,0.00000000000000)   4   2   7   3
(0.15795298974421,0.00000000000000)   4   4   3   7
(0.07922545936730,0.00000000000000)   4   6   3   7
(0.07922545936730,0.00000000000000)   4   6   7   3
(-0.02599560760329,0.00000000000000)   4   1   4   1
(0.02599560760329,-0.00000000000000)   4   1   1   4
(0.00000000000000,-0.01641498750843)   4   2   4   1
(-0.00000000000000,0.01641498750843)   4   2   1   4
(0.00000000000000,-0.00839611021102)   4   4   4   1
(0.00000000000000,0.00201547149076)   4   6   4   1
(-0.00000000000000,-0.00201547149076)   4   6   1   4
(0.00000000000000,-0.01641498750843)   4   1   4   2
(0.00000000000000,-0.01641498750843)   4   1   2   4
(0.12339833073797,0.00000000000000)   4   2   4   2
(0.12339833073797,0.00000000000000)   4   2   2   4
(0.10540583431286,0.00000000000000)   4   4   4   2
(0.03156047657227,0.00000000000000)   4   6   4   2
(0.03156047657227,0.00000000000000)   4   6   2   4
(-0.04824540866317,0.00000000000000)   4   3   4   3
(0.04824540866317,-0.00000000000000)   4   3   3   4
(-0.00047192571930,0.00000000000000)   4   7   4   3
(0.00047192571930,-0.00000000000000)   4   7   3   4
(0.00000000000000,-0.00839611021102)   4   1   4   4
(0.10540583431286,0.00000000000000)   4   2   4   4
(0.76756447322613,0.00000000000000)   4   4   4   4
(0.12321615839168,0.00000000000000)   4   6   4   4
(-0.05563904679658,0.00000000000000)   4   5   4   5
(0.05563904679658,-0.00000000000000)   4   5   5   4
(0.00000000000000,0.00201547149076)   4   1   4   6
(0.00000000000000,0.00201547149076)   4   1   6   4
(0.03156047657227,0.00000000000000)   4   2   4   6
(0.03156047657227,0.00000000000000)   4   2   6   4
(0.12321615839168,0.00000000000000)   4   4   4   6
(0.07214983609024,0.00000000000000)   4   6   4   6
(0.07214983609024,0.00000000000000)   4   6   6   4
(-0.00047192571930,0.00000000000000)   4   3   4   7
(0.00047192571930,-0.00000000000000)   4   3   7   4
(-0.06955562744686,0.00000000000000)   4   7   4   7
(0.06955562744686,-0.00000000000000)   4   7   7   4
(1.09024800597330,0.00000000000000)   5   5   1   1
(0.00000000000000,-0.01246664817451)   5   5   1   2
(0.00000000000000,-0.00659515816815)   5   5   1   4
(0.01968511532679,0.00000000000000)   5   1   1   5
(0.01968511532679,0.00000000000000)   5   1   5   1
(0.00000000000000,0.03059125500449)   5   2   1   5
(0.00000000000000,0.03059125500449)   5   2   5   1
(0.00000000000000,0.01256193603677)   5   4   1   5
(0.00000000000000,0.01256193603677)   5   4   5   1
(0.00000000000000,-0.01457675724761)   5   6   1   5
(0.00000000000000,-0.01457675724761)   5   6   5   1
(0.00000000000000,0.00778282168479)   5   5   1   6
(0.00000000000000,0.01246664817451)   5   5   2   1
(0.73794531756814,0.00000000000000)   5   5   2   2
(0.07091560951428,0.00000000000000)   5   5   2   4
(0.00000000000000,-0.03059125500449)   5   1   2   5
(-0.00000000000000,0.03059125500449)   5   1   5   2
(0.14277946840962,0.00000000000000)   5   2   2   5
(-0.14277946840962,-0.00000000000000)   5   2   5   2
(0.04698962682280,0.00000000000000)   5   4   2   5
(-0.04698962682280,-0.00000000000000)   5   4   5   2
(-0.05852509512986,0.00000000000000)   5   6   2   5
(0.05852509512986,-0.00000000000000)   5   6   5   2
(-0.15106992804467,0.00000000000000)   5   5   2   6
(0.61246770558414,0.00000000000000)   5   5   3   3
(0.02730518397926,0.00000000000000)   5   3   3   5
(0.02730518397926,0.00000000000000)   5   3   5   3
(0.02463944366246,0.00000000000000)   5   7   3   5
(0.02463944366246,0.00000000000000)   5   7   5   3
(0.19157368628437,0.00000000000000)   5   5   3   7
(0.00000000000000,0.00659515816815)   5   5   4   1
(0.07091560951428,0.00000000000000)   5   5   4   2
(0.71944611107626,0.00000000000000)   5   5   4   4
(0.00000000000000,-0.01256193603677)   5   1   4   5
(-0.00000000000000,0.01256193603677)   5   1   5   4
(0.04698962682280,0.00000000000000)   5   2   4   5
(-0.04698962682280,-0.00000000000000)   5   2   5   4
(0.05563904679658,0.00000000000000)   5   4   4   5
(-0.05563904679658,-0.00000000000000)   5   4   5   4
(-0.00046724215737,0.00000000000000)   5   6   4   5
(0.00046724215737,-0.00000000000000)   5   6   5   4
(0.12066649327505,0.00000000000000)   5   5   4   6
(0.01968511532679,0.00000000000000)   5   1   5   1
(0.01968511532679,0.00000000000000)   5   1   1   5
(0.00000000000000,0.03059125500449)   5   2   5   1
(0.00000000000000,0.03059125500449)   5   2   1   5
(0.00000000000000,0.01256193603677)   5   4   5   1
(0.00000000000000,0.01256193603677)   5   4   1   5
(0.00000000000000,-0.01457675724761)   5   6   5   1
(0.00000000000000,-0.01457675724761)   5   6   1   5
(0.00000000000000,0.03059125500449)   5   1   5   2
(-0.00000000000000,-0.03059125500449)   5   1   2   5
(-0.14277946840962,0.00000000000000)   5   2   5   2
(0.14277946840962,-0.00000000000000)   5   2   2   5
(-0.04698962682280,0.00000000000000)   5   4   5   2
(0.04698962682280,-0.00000000000000)   5   4   2   5
(0.05852509512986,0.00000000000000)   5   6   5   2
(-0.05852509512986,-0.00000000000000)   5   6   2   5
(0.02730518397926,0.00000000000000)   5   3   5   3
(0.02730518397926,0.00000000000000)   5   3   3   5
(0.02463944366246,0.00000000000000)   5   7   5   3
(0.02463944366246,0.00000000000000)   5   7   3   5
(0.00000000000000,0.01256193603677)   5   1   5   4
(-0.00000000000000,-0.01256193603677)   5   1   4   5
(-0.04698962682280,0.00000000000000)   5   2   5   4
(0.04698962682280,-0.00000000000000)   5   2   4   5
(-0.05563904679658,0.00000000000000)   5   4   5   4
(0.05563904679658,-0.00000000000000)   5   4   4   5
(0.00046724215737,0.00000000000000)   5   6   5   4
(-0.00046724215737,-0.00000000000000)   5   6   4   5
(0.87907590531399,0.00000000000000)   5   5   5   5
(0.00000000000000,-0.01457675724761)   5   1   5   6
(-0.00000000000000,0.01457675724761)   5   1   6   5
(0.05852509512986,0.00000000000000)   5   2   5   6
(-0.05852509512986,-0.00000000000000)   5   2   6   5
(0.00046724215737,0.00000000000000)   5   4   5   6
(-0.00046724215737,-0.00000000000000)   5   4   6   5
(-0.03949542854840,0.00000000000000)   5   6   5   6
(0.03949542854840,-0.00000000000000)   5   6   6   5
(0.02463944366246,0.00000000000000)   5   3   5   7
(0.02463944366246,0.00000000000000)   5   3   7   5
(0.02735510284530,0.00000000000000)   5   7   5   7
(0.02735510284530,0.00000000000000)   5   7   7   5
(0.00000000000000,-0.26154672673619)   6   1   1   1
(-0.29972702400417,0.00000000000000)   6   2   1   1
(0.20823078405860,0.00000000000000)   6   4   1   1
(0.79221939973826,0.00000000000000)   6   6   1   1
(-0.04061791210891,0.00000000000000)   6   1   1   2
(0.04061791210891,-0.00000000000000)   6   1   2   1
(0.00000000000000,0.00947685902042)   6   2   1   2
(-0.00000000000000,-0.00947685902042)   6   2   2   1
(0.00000000000000,-0.00113709330793)   6   4   1   2
(-0.00000000000000,0.00113709330793)   6   4   2   1
(0.00000000000000,-0.00936308567433)   6   6   1   2
(0.00000000000000,0.00230015587619)   6   3   1   3
(0.00000000000000,0.00230015587619)   6   3   3   1
(0.00000000000000,0.00819942308847)   6   7   1   3
(0.00000000000000,0.00819942308847)   6   7   3   1
(-0.00743830240259,0.00000000000000)   6   1   1   4
(0.00743830240259,-0.00000000000000)   6   1   4   1
(0.00000000000000,0.01921615176109)   6   2   1   4
(-0.00000000000000,-0.01921615176109)   6   2   4   1
(0.00000000000000,-0.00201547149076)   6   4   1   4
(-0.00000000000000,0.00201547149076)   6   4   4   1
(0.00000000000000,-0.02147651714263)   6   6   1   4
(0.00000000000000,0.01457675724761)   6   5   1   5
(0.00000000000000,0.01457675724761)   6   5   5   1
(0.03222417857003,0.00000000000000)   6   1   1   6
(-0.03222417857003,-0.00000000000000)   6   1   6   1
(0.00000000000000,0.00387164453742)   6   2   1   6
(-0.00000000000000,-0.00387164453742)   6   2   6   1
(0.00000000000000,0.00012582055606)   6   4   1   6
(-0.00000000000000,-0.00012582055606)   6   4   6   1
(0.00000000000000,-0.00592067941616)   6   6   1   6
(0.00000000000000,0.00233316034054)   6   3   1   7
(0.00000000000000,0.00233316034054)   6   3   7   1
(0.00000000000000,0.01209878713126)   6   7   1   7
(0.00000000000000,0.01209878713126)   6   7   7   1
(0.04061791210891,0.00000000000000)   6   1   2   1
(-0.04061791210891,-0.00000000000000)   6   1   1   2
(0.00000000000000,-0.00947685902042)   6   2   2   1
(-0.00000000000000,0.00947685902042)   6   2   1   2
(0.00000000000000,0.00113709330793)   6   4   2   1
(-0.00000000000000,-0.00113709330793)   6   4   1   2
(0.00000000000000,0.00936308567433)   6   6   2   1
(0.00000000000000,-0.00542493370898)   6   1   2   2
(-0.13238097546898,0.00000000000000)   6   2   2   2
(0.09739162965583,0.00000000000000)   6   4   2   2
(0.60448522076524,0.00000000000000)   6   6   2   2
(-0.04630751888666,0.00000000000000)   6   3   2   3
(0.04630751888666,-0.00000000000000)   6   3   3   2
(0.09766213187936,0.00000000000000)   6   7   2   3
(-0.09766213187936,-0.00000000000000)   6   7   3   2
(0.00000000000000,-0.02058681503969)   6   1   2   4
(0.00000000000000,-0.02058681503969)   6   1   4   2
(0.02244014081032,0.00000000000000)   6   2   2   4
(0.02244014081032,0.00000000000000)   6   2   4   2
(0.03156047657227,0.00000000000000)   6   4   2   4
(0.03156047657227,0.00000000000000)   6   4   4   2
(-0.05583472822201,0.00000000000000)   6   6   2   4
(0.05852509512986,0.00000000000000)   6   5   2   5
(-0.05852509512986,-0.00000000000000)   6   5   5   2
(0.00000000000000,-0.00387164453742)   6   1   2   6
(0.00000000000000,-0.00387164453742)   6   1   6   2
(0.09790907126069,0.00000000000000)   6   2   2   6
(0.09790907126069,0.00000000000000)   6   2   6   2
(-0.06087633882554,0.00000000000000)   6   4   2   6
(-0.06087633882554,0.00000000000000)   6   4   6   2
(-0.09454457058166,0.00000000000000)   6   6   2   6
(0.03323452683641,0.00000000000000)   6   3   2   7
(-0.03323452683641,-0.00000000000000)   6   3   7   2
(-0.00481338042540,0.00000000000000)   6   7   2   7
(0.00481338042540,-0.00000000000000)   6   7   7   2
(0.00000000000000,0.00230015587619)   6   3   3   1
(0.00000000000000,0.00230015587619)   6   3   1   3
(0.00000000000000,0.00819942308847)   6   7   3   1
(0.00000000000000,0.00819942308847)   6   7   1   3
(0.04630751888666,0.00000000000000)   6   3   3   2
(-0.04630751888666,-0.00000000000000)   6   3   2   3
(-0.09766213187936,0.00000000000000)   6   7   3   2
(0.09766213187936,-0.00000000000000)   6   7   2   3
(0.00000000000000,-0.00075011788752)   6   1   3   3
(-0.06499751932943,0.00000000000000)   6   2   3   3
(0.04094441156018,0.00000000000000)   6   4   3   3
(0.56054664350626,0.00000000000000)   6   6   3   3
(-0.03155755025726,0.00000000000000)   6   3   3   4
(0.03155755025726,-0.00000000000000)   6   3   4   3
(0.04917176448041,0.00000000000000)   6   7   3   4
(-0.04917176448041,-0.00000000000000)   6   7   4   3
(0.07410153683018,0.00000000000000)   6   3   3   6
(-0.07410153683018,-0.00000000000000)   6   3   6   3
(-0.06403284617439,0.00000000000000)   6   7   3   6
(0.06403284617439,-0.00000000000000)   6   7   6   3
(0.00000000000000,-0.00740229210927)   6   1   3   7
(0.00000000000000,-0.00740229210927)   6   1   7   3
(-0.07333987765140,0.00000000000000)   6   2   3   7
(-0.07333987765140,0.00000000000000)   6   2   7   3
(0.07922545936730,0.00000000000000)   6   4   3   7
(0.07922545936730,0.00000000000000)   6   4   7   3
(0.04375801641996,0.00000000000000)   6   6   3   7
(0.00743830240259,0.00000000000000)   6   1   4   1
(-0.00743830240259,-0.00000000000000)   6   1   1   4
(0.00000000000000,-0.01921615176109)   6   2   4   1
(-0.00000000000000,0.01921615176109)   6   2   1   4
(0.00000000000000,0.00201547149076)   6   4   4   1
(-0.00000000000000,-0.00201547149076)   6   4   1   4
(0.00000000000000,0.02147651714263)   6   6   4   1
(0.00000000000000,-0.02058681503969)   6   1   4   2
(0.00000000000000,-0.02058681503969)   6   1   2   4
(0.02244014081032,0.00000000000000)   6   2   4   2
(0.02244014081032,0.00000000000000)   6   2   2   4
(0.03156047657227,0.00000000000000)   6   4   4   2
(0.03156047657227,0.00000000000000)   6   4   2   4
(-0.05583472822201,0.00000000000000)   6   6   4   2
(0.03155755025726,0.00000000000000)   6   3   4   3
(-0.03155755025726,-0.00000000000000)   6   3   3   4
(-0.04917176448041,0.00000000000000)   6   7   4   3
(0.04917176448041,-0.00000000000000)   6   7   3   4
(0.00000000000000,-0.01990672361379)   6   1   4   4
(-0.07950325591698,0.00000000000000)   6   2   4   4
(0.12321615839168,0.00000000000000)   6   4   4   4
(0.54331322576944,0.00000000000000)   6   6   4   4
(0.00046724215737,0.00000000000000)   6   5   4   5
(-0.00046724215737,-0.00000000000000)   6   5   5   4
(0.00000000000000,-0.00012582055606)   6   1   4   6
(0.00000000000000,-0.00012582055606)   6   1   6   4
(-0.06087633882554,0.00000000000000)   6   2   4   6
(-0.06087633882554,0.00000000000000)   6   2   6   4
(0.07214983609024,0.00000000000000)   6   4   4   6
(0.07214983609024,0.00000000000000)   6   4   6   4
(0.04962150958966,0.00000000000000)   6   6   4   6
(-0.04687533933229,0.00000000000000)   6   3   4   7
(0.04687533933229,-0.00000000000000)   6   3   7   4
(0.05453086349609,0.00000000000000)   6   7   4   7
(-0.05453086349609,-0.00000000000000)   6   7   7   4
(0.00000000000000,0.01457675724761)   6   5   5   1
(0.00000000000000,0.01457675724761)   6   5   1   5
(-0.05852509512986,0.00000000000000)   6   5   5   2
(0.05852509512986,-0.00000000000000)   6   5   2   5
(-0.00046724215737,0.00000000000000)   6   5   5   4
(0.00046724215737,-0.00000000000000)   6   5   4   5
(0.00000000000000,-0.00778282168479)   6   1   5   5
(-0.15106992804467,0.00000000000000)   6   2   5   5
(0.12066649327505,0.00000000000000)   6   4   5   5
(0.58504393277007,0.00000000000000)   6   6   5   5
(0.03949542854840,0.00000000000000)   6   5   5   6
(-0.03949542854840,-0.00000000000000)   6   5   6   5
(-0.03222417857003,0.00000000000000)   6   1   6   1
(0.03222417857003,-0.00000000000000)   6   1   1   6
(0.00000000000000,-0.00387164453742)   6   2   6   1
(-0.00000000000000,0.00387164453742)   6   2   1   6
(0.00000000000000,-0.00012582055606)   6   4   6   1
(-0.00000000000000,0.00012582055606)   6   4   1   6
(0.00000000000000,0.00592067941616)   6   6   6   1
(0.00000000000000,-0.00387164453742)   6   1   6   2
(0.00000000000000,-0.00387164453742)   6   1   2   6
(0.09790907126069,0.00000000000000)   6   2   6   2
(0.09790907126069,0.00000000000000)   6   2   2   6