 &FCI NORB=10,NELEC=  4,MS2=  0
  ORBSYM=1,6,1,6,1,8,7,3,4,6,
  ISYM=1 UHF=.FALSE.
 &END
     0.67070635822329  1  1  1  1
     0.14365643821876  1  3  1  1
    0.059979668777608  1  5  1  1
     0.35207674336448  1  2  1  2
    -0.12879336051315  1  4  1  2
   -0.032523976362037  1 10  1  2
     0.14365643821876  1  1  1  3
     0.11657505014516  1  3  1  3
  -0.0013054462780188  1  5  1  3
    -0.12879336051315  1  2  1  4
    0.099404497531197  1  4  1  4
  -0.0018793749780073  1 10  1  4
    0.059979668777608  1  1  1  5
  -0.0013054462780188  1  3  1  5
     0.10189740680539  1  5  1  5
    0.094127054883753  1  6  1  6
    0.094127054883753  1  7  1  7
    0.084973847721775  1  8  1  8
    0.084973847721775  1  9  1  9
   -0.032523976362037  1  2  1 10
  -0.0018793749780073  1  4  1 10
    0.080654331961804  1 10  1 10
     0.67965183708656  2  2  1  1
    -0.16155742329256  2  4  1  1
  -0.0057050559178493  2 10  1  1
     0.35207674336448  2  1  1  2
     0.18070095112053  2  3  1  2
   -0.021133868643658  2  5  1  2
     0.16234345856336  2  2  1  3
     -0.1028739968425  2  4  1  3
   -0.041211530512144  2 10  1  3
    -0.12879336051315  2  1  1  4
    -0.10716447769083  2  3  1  4
   -0.030617860809879  2  5  1  4
    0.043677844631471  2  2  1  5
   -0.046928543269667  2  4  1  5
    0.088754173035089  2 10  1  5
    0.096280403994609  2  8  1  6
    0.096280403994609  2  9  1  7
    0.087716971238187  2  6  1  8
    0.087716971238186  2  7  1  9
   -0.032523976362037  2  1  1 10
   -0.031726647336151  2  3  1 10
    0.076779374726094  2  5  1 10
     0.35207674336448  2  1  2  1
     0.18070095112053  2  3  2  1
   -0.021133868643658  2  5  2  1
     0.69506032052516  2  2  2  2
    -0.16883267954878  2  4  2  2
     -0.0247453226185  2 10  2  2
     0.18070095112053  2  1  2  3
     0.13411786340911  2  3  2  3
  -0.0031484746954334  2  5  2  3
    -0.16883267954878  2  2  2  4
      0.1166115839904  2  4  2  4
  -0.0029819921793176  2 10  2  4
   -0.021133868643658  2  1  2  5
  -0.0031484746954334  2  3  2  5
    0.086365060376261  2  5  2  5
    0.090743142373547  2  6  2  6
    0.090743142373546  2  7  2  7
    0.098913365887484  2  8  2  8
    0.098913365887483  2  9  2  9
     -0.0247453226185  2  2  2 10
  -0.0029819921793176  2  4  2 10
    0.093944003339995  2 10  2 10
     0.14365643821876  3  1  1  1
     0.60920464975707  3  3  1  1
   -0.019581186700322  3  5  1  1
     0.18070095112053  3  2  1  2
    -0.25202670525015  3  4  1  2
    -0.10506646651007  3 10  1  2
     0.11657505014516  3  1  1  3
     0.12526191014612  3  3  1  3
   0.0025024862057245  3  5  1  3
    -0.10716447769083  3  2  1  4
    0.097040884414824  3  4  1  4
    0.031067485347169  3 10  1  4
  -0.0013054462780188  3  1  1  5
    0.051848130110914  3  3  1  5
   0.0081812659446156  3  5  1  5
    0.013956167335644  3  6  1  6
    0.013956167335644  3  7  1  7
    0.017684032197727  3  8  1  8
    0.017684032197727  3  9  1  9
   -0.031726647336151  3  2  1 10
    0.027931364616917  3  4  1 10
    0.028154934026352  3 10  1 10
     0.18070095112053  3  2  2  1
    -0.25202670525015  3  4  2  1
    -0.10506646651007  3 10  2  1
     0.16234345856336  3  1  2  2
     0.61497628134256  3  3  2  2
   -0.017232127903942  3  5  2  2
     0.13411786340911  3  2  2  3
    -0.13597663966814  3  4  2  3
   -0.053229375691848  3 10  2  3
     -0.1028739968425  3  1  2  4
    -0.14569674722825  3  3  2  4
  -0.0012023673983619  3  5  2  4
  -0.0031484746954334  3  2  2  5
    0.015689968310335  3  4  2  5
    0.027366962731882  3 10  2  5
    0.019023516728098  3  8  2  6
    0.019023516728098  3  9  2  7
    0.015824942756858  3  6  2  8
    0.015824942756858  3  7  2  9
   -0.041211530512144  3  1  2 10
  -0.0077019211319999  3  3  2 10
    0.012131842256102  3  5  2 10
     0.11657505014516  3  1  3  1
     0.12526191014612  3  3  3  1
   0.0025024862057245  3  5  3  1
     0.13411786340911  3  2  3  2
    -0.13597663966814  3  4  3  2
   -0.053229375691848  3 10  3  2
     0.12526191014612  3  1  3  3
     0.57873383690908  3  3  3  3
   -0.016841794348202  3  5  3  3
    -0.13597663966814  3  2  3  4
       0.200853515686  3  4  3  4
    0.075517780617226  3 10  3  4
   0.0025024862057244  3  1  3  5
   -0.016841794348202  3  3  3  5
    0.019381496297193  3  5  3  5
    0.016709556467416  3  6  3  6
    0.016709556467416  3  7  3  7
    0.015446911289398  3  8  3  8
    0.015446911289398  3  9  3  9
   -0.053229375691848  3  2  3 10
    0.075517780617226  3  4  3 10
    0.047108683388364  3 10  3 10
    -0.16155742329256  4  2  1  1
     0.56590838646333  4  4  1  1
   -0.018954562271171  4 10  1  1
    -0.12879336051315  4  1  1  2
    -0.25202670525015  4  3  1  2
    -0.12181411460842  4  5  1  2
     -0.1028739968425  4  2  1  3
     0.11982288229069  4  4  1  3
    0.004262374473717  4 10  1  3
    0.099404497531197  4  1  1  4
    0.097040884414824  4  3  1  4
    0.034229101098689  4  5  1  4
   -0.046928543269667  4  2  1  5
    0.031963860261167  4  4  1  5
   -0.019104539731105  4 10  1  5
  -0.0061347428884625  4  8  1  6
  -0.0061347428884625  4  9  1  7
  -0.0077625589174078  4  6  1  8
  -0.0077625589174078  4  7  1  9
  -0.0018793749780073  4  1  1 10
    0.027931364616917  4  3  1 10
  -0.0025612962901823  4  5  1 10
    -0.12879336051315  4  1  2  1
    -0.25202670525015  4  3  2  1
    -0.12181411460842  4  5  2  1
    -0.16883267954878  4  2  2  2
     0.57833435836791  4  4  2  2
   -0.016411653276514  4 10  2  2
    -0.10716447769083  4  1  2  3
    -0.13597663966814  4  3  2  3
   -0.048822600995604  4  5  2  3
      0.1166115839904  4  2  2  4
    -0.12315111551065  4  4  2  4
   0.0020037546293441  4 10  2  4
   -0.030617860809879  4  1  2  5
    0.015689968310335  4  3  2  5
   0.0004118097689314  4  5  2  5
  -0.0078821555624192  4  6  2  6
  -0.0078821555624192  4  7  2  7
  -0.0063791375915836  4  8  2  8
  -0.0063791375915836  4  9  2  9
  -0.0029819921793176  4  2  2 10
   -0.016861562108678  4  4  2 10
   -0.018616094834843  4 10  2 10
     -0.1028739968425  4  2  3  1
     0.11982288229069  4  4  3  1
    0.004262374473717  4 10  3  1
    -0.10716447769083  4  1  3  2
    -0.13597663966814  4  3  3  2
   -0.048822600995604  4  5  3  2
    -0.14569674722825  4  2  3  3
     0.53177525945977  4  4  3  3
  -0.0045934910264935  4 10  3  3
    0.097040884414824  4  1  3  4
       0.200853515686  4  3  3  4
    0.088833091169459  4  5  3  4
  -0.0012023673983619  4  2  3  5
  -0.0014941919689952  4  4  3  5
  -0.0052119202518155  4 10  3  5
   -0.012489249537768  4  8  3  6
   -0.012489249537768  4  9  3  7
   -0.011950804526956  4  6  3  8
   -0.011950804526956  4  7  3  9
    0.031067485347169  4  1  3 10
    0.075517780617226  4  3  3 10
    0.026182670749049  4  5  3 10
    0.099404497531197  4  1  4  1
    0.097040884414824  4  3  4  1
    0.034229101098689  4  5  4  1
      0.1166115839904  4  2  4  2
    -0.12315111551065  4  4  4  2
   0.0020037546293441  4 10  4  2
    0.097040884414824  4  1  4  3
       0.200853515686  4  3  4  3
    0.088833091169459  4  5  4  3
    -0.12315111551065  4  2  4  4
     0.51398107541276  4  4  4  4
   -0.010885696902514  4 10  4  4
    0.034229101098689  4  1  4  5
    0.088833091169459  4  3  4  5
    0.060758198462667  4  5  4  5
    0.014719277151163  4  6  4  6
    0.014719277151163  4  7  4  7
    0.015219750664568  4  8  4  8
    0.015219750664568  4  9  4  9
   0.0020037546293441  4  2  4 10
   -0.010885696902514  4  4  4 10
    0.018554023251514  4 10  4 10
    0.059979668777608  5  1  1  1
   -0.019581186700322  5  3  1  1
     0.64305548010051  5  5  1  1
   -0.021133868643658  5  2  1  2
    -0.12181411460842  5  4  1  2
     0.28525285892426  5 10  1  2
  -0.0013054462780188  5  1  1  3
   0.0025024862057245  5  3  1  3
     0.10659883307271  5  5  1  3
   -0.030617860809879  5  2  1  4
    0.034229101098689  5  4  1  4
    -0.08267888696269  5 10  1  4
     0.10189740680539  5  1  1  5
   0.0081812659446156  5  3  1  5
    0.049051553800184  5  5  1  5
   0.0010367519535343  5  6  1  6
   0.0010367519535343  5  7  1  7
  -0.0020185919843321  5  8  1  8
  -0.0020185919843321  5  9  1  9
    0.076779374726094  5  2  1 10
  -0.0025612962901823  5  4  1 10
   -0.023754738281299  5 10  1 10
   -0.021133868643658  5  2  2  1
    -0.12181411460842  5  4  2  1
     0.28525285892426  5 10  2  1
    0.043677844631471  5  1  2  2
   -0.017232127903942  5  3  2  2
     0.64716175256398  5  5  2  2
  -0.0031484746954334  5  2  2  3
   -0.048822600995604  5  4  2  3
     0.12467328271487  5 10  2  3
   -0.046928543269667  5  1  2  4
  -0.0012023673983619  5  3  2  4
    -0.12171413814569  5  5  2  4
    0.086365060376261  5  2  2  5
  0.00041180976893139  5  4  2  5
   -0.029330315662191  5 10  2  5
  -0.0040388510836597  5  8  2  6
  -0.0040388510836597  5  9  2  7
  -0.0015496023343892  5  6  2  8
  -0.0015496023343892  5  7  2  9
    0.088754173035089  5  1  2 10
    0.012131842256102  5  3  2 10
  -0.0066949331309025  5  5  2 10
  -0.0013054462780188  5  1  3  1
   0.0025024862057245  5  3  3  1
     0.10659883307271  5  5  3  1
  -0.0031484746954334  5  2  3  2
   -0.048822600995604  5  4  3  2
     0.12467328271487  5 10  3  2
    0.051848130110914  5  1  3  3
   -0.016841794348202  5  3  3  3
      0.5693202264647  5  5  3  3
    0.015689968310335  5  2  3  4
    0.088833091169459  5  4  3  4
    -0.18498446133592  5 10  3  4
   0.0081812659446156  5  1  3  5
    0.019381496297193  5  3  3  5
   -0.029474334250502  5  5  3  5
  -0.0038007421268838  5  6  3  6
  -0.0038007421268838  5  7  3  7
  -0.0025700245809912  5  8  3  8
  -0.0025700245809912  5  9  3  9
    0.027366962731882  5  2  3 10
    0.026182670749049  5  4  3 10
   -0.091231628963563  5 10  3 10
   -0.030617860809879  5  2  4  1
    0.034229101098689  5  4  4  1
    -0.08267888696269  5 10  4  1
   -0.046928543269667  5  1  4  2
  -0.0012023673983619  5  3  4  2
    -0.12171413814569  5  5  4  2
    0.015689968310335  5  2  4  3
    0.088833091169459  5  4  4  3
    -0.18498446133592  5 10  4  3
    0.031963860261167  5  1  4  4
  -0.0014941919689952  5  3  4  4
     0.53620968852423  5  5  4  4
   0.0004118097689314  5  2  4  5
    0.060758198462667  5  4  4  5
    -0.11262393880997  5 10  4  5
  -0.0097822840429262  5  8  4  6
  -0.0097822840429261  5  9  4  7
  -0.0095586787075409  5  6  4  8
  -0.0095586787075409  5  7  4  9
   -0.019104539731105  5  1  4 10
  -0.0052119202518155  5  3  4 10
   -0.040043126244316  5  5  4 10
     0.10189740680539  5  1  5  1
   0.0081812659446156  5  3  5  1
    0.049051553800184  5  5  5  1
    0.086365060376261  5  2  5  2
   0.0004118097689314  5  4  5  2
   -0.029330315662191  5 10  5  2
   0.0081812659446156  5  1  5  3
    0.019381496297193  5  3  5  3
   -0.029474334250502  5  5  5  3
   0.0004118097689314  5  2  5  4
    0.060758198462667  5  4  5  4
    -0.11262393880997  5 10  5  4
    0.049051553800184  5  1  5  5
   -0.029474334250502  5  3  5  5
     0.68187980553883  5  5  5  5
    0.031479091935256  5  6  5  6
    0.031479091935256  5  7  5  7
    0.030143457390009  5  8  5  8
    0.030143457390009  5  9  5  9
   -0.029330315662191  5  2  5 10
    -0.11262393880997  5  4  5 10
     0.29107311818785  5 10  5 10
     0.63986576411541  6  6  1  1
     0.31993530546713  6  8  1  2
     0.10961380673289  6  6  1  3
   -0.087513300231882  6  8  1  4
    0.044321302850237  6  6  1  5
    0.094127054883753  6  1  1  6
    0.013956167335644  6  3  1  6
   0.0010367519535343  6  5  1  6
    0.087716971238187  6  2  1  8
  -0.0077625589174078  6  4  1  8
   0.0028361996471217  6 10  1  8
    -0.02135022110972  6  8  1 10
     0.31993530546713  6  8  2  1
     0.64806954680778  6  6  2  2
     0.13559229349038  6  8  2  3
    -0.12005040146634  6  6  2  4
   -0.026148048631073  6  8  2  5
    0.090743142373547  6  2  2  6
  -0.0078821555624192  6  4  2  6
  0.00077617968104337  6 10  2  6
    0.096280403994609  6  1  2  8
    0.015824942756858  6  3  2  8
  -0.0015496023343892  6  5  2  8
   -0.003614255806261  6  6  2 10
     0.10961380673289  6  6  3  1
     0.13559229349038  6  8  3  2
     0.56559874199856  6  6  3  3
    -0.21312690996583  6  8  3  4
   -0.020680358498632  6  6  3  5
    0.013956167335644  6  1  3  6
    0.016709556467416  6  3  3  6
  -0.0038007421268838  6  5  3  6
    0.019023516728098  6  2  3  8
   -0.011950804526956  6  4  3  8
  -0.0070156092195825  6 10  3  8
   -0.094053331560492  6  8  3 10
   -0.087513300231882  6  8  4  1
    -0.12005040146634  6  6  4  2
    -0.21312690996583  6  8  4  3
     0.53094682818568  6  6  4  4
    -0.11180582055891  6  8  4  5
  -0.0078821555624192  6  2  4  6
    0.014719277151163  6  4  4  6
  -0.0045176450658998  6 10  4  6
  -0.0061347428884625  6  1  4  8
   -0.012489249537768  6  3  4  8
  -0.0095586787075409  6  5  4  8
   -0.020190467016659  6  6  4 10
    0.044321302850237  6  6  5  1
   -0.026148048631073  6  8  5  2
   -0.020680358498632  6  6  5  3
    -0.11180582055891  6  8  5  4
     0.61671353803639  6  6  5  5
   0.0010367519535343  6  1  5  6
  -0.0038007421268838  6  3  5  6
    0.031479091935256  6  5  5  6
  -0.0040388510836597  6  2  5  8
  -0.0097822840429262  6  4  5  8
    0.028923173371464  6 10  5  8
     0.26475145523459  6  8  5 10
    0.094127054883753  6  1  6  1
    0.013956167335644  6  3  6  1
   0.0010367519535343  6  5  6  1
    0.090743142373547  6  2  6  2
  -0.0078821555624192  6  4  6  2
  0.00077617968104337  6 10  6  2
    0.013956167335644  6  1  6  3
    0.016709556467416  6  3  6  3
  -0.0038007421268838  6  5  6  3
  -0.0078821555624192  6  2  6  4
    0.014719277151163  6  4  6  4
  -0.0045176450658998  6 10  6  4
   0.0010367519535343  6  1  6  5
  -0.0038007421268838  6  3  6  5
    0.031479091935256  6  5  6  5
     0.67977039832541  6  6  6  6
    0.031949961699913  6  7  6  7
     0.36015293324971  6  8  6  8
    0.031616071356846  6  9  6  9
  0.00077617968104336  6  2  6 10
  -0.0045176450658998  6  4  6 10
    0.030688899201096  6 10  6 10
     0.63986576411541  7  7  1  1
     0.31993530546713  7  9  1  2
     0.10961380673289  7  7  1  3
   -0.087513300231882  7  9  1  4
    0.044321302850237  7  7  1  5
    0.094127054883753  7  1  1  7
    0.013956167335644  7  3  1  7
   0.0010367519535343  7  5  1  7
    0.087716971238186  7  2  1  9
  -0.0077625589174078  7  4  1  9
   0.0028361996471217  7 10  1  9
    -0.02135022110972  7  9  1 10
     0.31993530546713  7  9  2  1
     0.64806954680778  7  7  2  2
     0.13559229349038  7  9  2  3
    -0.12005040146634  7  7  2  4
   -0.026148048631073  7  9  2  5
    0.090743142373546  7  2  2  7
  -0.0078821555624192  7  4  2  7
  0.00077617968104337  7 10  2  7
    0.096280403994609  7  1  2  9
    0.015824942756858  7  3  2  9
  -0.0015496023343892  7  5  2  9
   -0.003614255806261  7  7  2 10
     0.10961380673289  7  7  3  1
     0.13559229349038  7  9  3  2
     0.56559874199856  7  7  3  3
    -0.21312690996583  7  9  3  4
   -0.020680358498632  7  7  3  5
    0.013956167335644  7  1  3  7
    0.016709556467416  7  3  3  7
  -0.0038007421268838  7  5  3  7
    0.019023516728098  7  2  3  9
   -0.011950804526956  7  4  3  9
  -0.0070156092195825  7 10  3  9
   -0.094053331560492  7  9  3 10
   -0.087513300231882  7  9  4  1
    -0.12005040146634  7  7  4  2
    -0.21312690996583  7  9  4  3
     0.53094682818568  7  7  4  4
    -0.11180582055891  7  9  4  5
  -0.0078821555624192  7  2  4  7
    0.014719277151163  7  4  4  7
  -0.0045176450658998  7 10  4  7
  -0.0061347428884625  7  1  4  9
   -0.012489249537768  7  3  4  9
  -0.0095586787075409  7  5  4  9
   -0.020190467016659  7  7  4 10
    0.044321302850237  7  7  5  1
   -0.026148048631073  7  9  5  2
   -0.020680358498632  7  7  5  3
    -0.11180582055891  7  9  5  4
     0.61671353803638  7  7  5  5
   0.0010367519535343  7  1  5  7
  -0.0038007421268838  7  3  5  7
    0.031479091935256  7  5  5  7
  -0.0040388510836597  7  2  5  9
  -0.0097822840429261  7  4  5  9
    0.028923173371464  7 10  5  9
     0.26475145523459  7  9  5 10
     0.61587047492558  7  7  6  6
    0.031949961699913  7  6  6  7
     0.29692079053602  7  9  6  8
    0.031616071356846  7  8  6  9
    0.094127054883753  7  1  7  1
    0.013956167335644  7  3  7  1
   0.0010367519535343  7  5  7  1
    0.090743142373546  7  2  7  2
  -0.0078821555624192  7  4  7  2
  0.00077617968104337  7 10  7  2
    0.013956167335644  7  1  7  3
    0.016709556467416  7  3  7  3
  -0.0038007421268838  7  5  7  3
  -0.0078821555624192  7  2  7  4
    0.014719277151163  7  4  7  4
  -0.0045176450658998  7 10  7  4
   0.0010367519535343  7  1  7  5
  -0.0038007421268838  7  3  7  5
    0.031479091935256  7  5  7  5
    0.031949961699913  7  6  7  6
     0.67977039832541  7  7  7  7
    0.031616071356847  7  8  7  8
     0.36015293324971  7  9  7  9
  0.00077617968104336  7  2  7 10
  -0.0045176450658998  7  4  7 10
    0.030688899201096  7 10  7 10
     0.64009187812746  8  8  1  1
     0.31993530546713  8  6  1  2
     0.11034042694765  8  8  1  3
   -0.087513300231882  8  6  1  4
    0.043594660167179  8  8  1  5
    0.096280403994609  8  2  1  6
  -0.0061347428884626  8  4  1  6
   0.0074171406047369  8 10  1  6
    0.084973847721775  8  1  1  8
    0.017684032197727  8  3  1  8
  -0.0020185919843321  8  5  1  8
    -0.02135022110972  8  6  1 10
     0.31993530546713  8  6  2  1
      0.6486108574994  8  8  2  2
     0.13559229349038  8  6  2  3
    -0.12021225464652  8  8  2  4
   -0.026148048631073  8  6  2  5
    0.087716971238187  8  1  2  6
    0.019023516728098  8  3  2  6
  -0.0040388510836597  8  5  2  6
    0.098913365887484  8  2  2  8
  -0.0063791375915836  8  4  2  8
    0.004664711349478  8 10  2  8
  -0.0043395929923026  8  8  2 10
     0.11034042694765  8  8  3  1
     0.13559229349038  8  6  3  2
     0.56554444286036  8  8  3  3
    -0.21312690996583  8  6  3  4
   -0.020466577385517  8  8  3  5
    0.015824942756858  8  2  3  6
   -0.012489249537768  8  4  3  6
  -0.0088689686911915  8 10  3  6
    0.017684032197727  8  1  3  8
    0.015446911289398  8  3  3  8
  -0.0025700245809912  8  5  3  8
   -0.094053331560492  8  6  3 10
   -0.087513300231882  8  6  4  1
    -0.12021225464652  8  8  4  2
    -0.21312690996583  8  6  4  3
     0.53132685918929  8  8  4  4
    -0.11180582055891  8  6  4  5
  -0.0077625589174078  8  1  4  6
   -0.011950804526956  8  3  4  6
  -0.0097822840429262  8  5  4  6
  -0.0063791375915836  8  2  4  8
    0.015219750664568  8  4  4  8
  -0.0039029291442301  8 10  4  8
   -0.020106662452936  8  8  4 10
    0.043594660167179  8  8  5  1
   -0.026148048631073  8  6  5  2
   -0.020466577385517  8  8  5  3
    -0.11180582055891  8  6  5  4
      0.6166524419613  8  8  5  5
  -0.0015496023343892  8  2  5  6
  -0.0095586787075409  8  4  5  6
    0.030659301795362  8 10  5  6
  -0.0020185919843321  8  1  5  8
  -0.0025700245809912  8  3  5  8
    0.030143457390009  8  5  5  8
     0.26475145523459  8  6  5 10
    0.096280403994609  8  2  6  1
  -0.0061347428884626  8  4  6  1
   0.0074171406047369  8 10  6  1
    0.087716971238187  8  1  6  2
    0.019023516728098  8  3  6  2
  -0.0040388510836597  8  5  6  2
    0.015824942756858  8  2  6  3
   -0.012489249537768  8  4  6  3
  -0.0088689686911915  8 10  6  3
  -0.0077625589174078  8  1  6  4
   -0.011950804526956  8  3  6  4
  -0.0097822840429262  8  5  6  4
  -0.0015496023343892  8  2  6  5
  -0.0095586787075409  8  4  6  5
    0.030659301795362  8 10  6  5
     0.68037796577062  8  8  6  6
    0.032089902052561  8  9  6  7
     0.36015293324971  8  6  6  8
    0.031616071356846  8  7  6  9
   0.0028361996471217  8  1  6 10
  -0.0070156092195825  8  3  6 10
    0.028923173371464  8  5  6 10
    0.032089902052561  8  9  7  6
      0.6161981616655  8  8  7  7
    0.031616071356847  8  7  7  8
     0.29692079053602  8  6  7  9
    0.084973847721775  8  1  8  1
    0.017684032197727  8  3  8  1
  -0.0020185919843321  8  5  8  1
    0.098913365887484  8  2  8  2
  -0.0063791375915836  8  4  8  2
    0.004664711349478  8 10  8  2
    0.017684032197727  8  1  8  3
    0.015446911289398  8  3  8  3
  -0.0025700245809912  8  5  8  3
  -0.0063791375915836  8  2  8  4
    0.015219750664568  8  4  8  4
  -0.0039029291442301  8 10  8  4
  -0.0020185919843321  8  1  8  5
  -0.0025700245809912  8  3  8  5
    0.030143457390009  8  5  8  5
     0.36015293324971  8  6  8  6
    0.031616071356847  8  7  8  7
     0.68100847613835  8  8  8  8
    0.032232980130975  8  9  8  9
    0.004664711349478  8  2  8 10
  -0.0039029291442301  8  4  8 10
     0.03314915256804  8 10  8 10
     0.64009187812746  9  9  1  1
     0.31993530546713  9  7  1  2
     0.11034042694765  9  9  1  3
   -0.087513300231882  9  7  1  4
    0.043594660167178  9  9  1  5
    0.096280403994609  9  2  1  7
  -0.0061347428884625  9  4  1  7
   0.0074171406047369  9 10  1  7
    0.084973847721775  9  1  1  9
    0.017684032197727  9  3  1  9
  -0.0020185919843321  9  5  1  9
    -0.02135022110972  9  7  1 10
     0.31993530546713  9  7  2  1
      0.6486108574994  9  9  2  2
     0.13559229349038  9  7  2  3
    -0.12021225464652  9  9  2  4
   -0.026148048631073  9  7  2  5
    0.087716971238186  9  1  2  7
    0.019023516728098  9  3  2  7
  -0.0040388510836597  9  5  2  7
    0.098913365887483  9  2  2  9
  -0.0063791375915836  9  4  2  9
    0.004664711349478  9 10  2  9
  -0.0043395929923026  9  9  2 10
     0.11034042694765  9  9  3  1
     0.13559229349038  9  7  3  2
     0.56554444286036  9  9  3  3
    -0.21312690996583  9  7  3  4
   -0.020466577385517  9  9  3  5
    0.015824942756858  9  2  3  7
   -0.012489249537768  9  4  3  7
  -0.0088689686911915  9 10  3  7
    0.017684032197727  9  1  3  9
    0.015446911289398  9  3  3  9
  -0.0025700245809912  9  5  3  9
   -0.094053331560492  9  7  3 10
   -0.087513300231882  9  7  4  1
    -0.12021225464652  9  9  4  2
    -0.21312690996583  9  7  4  3
     0.53132685918929  9  9  4  4
    -0.11180582055891  9  7  4  5
  -0.0077625589174078  9  1  4  7
   -0.011950804526956  9  3  4  7
  -0.0097822840429261  9  5  4  7
  -0.0063791375915836  9  2  4  9
    0.015219750664568  9  4  4  9
  -0.0039029291442301  9 10  4  9
   -0.020106662452936  9  9  4 10
    0.043594660167178  9  9  5  1
   -0.026148048631073  9  7  5  2
   -0.020466577385517  9  9  5  3
    -0.11180582055891  9  7  5  4
      0.6166524419613  9  9  5  5
  -0.0015496023343892  9  2  5  7
  -0.0095586787075409  9  4  5  7
    0.030659301795362  9 10  5  7
  -0.0020185919843321  9  1  5  9
  -0.0025700245809912  9  3  5  9
    0.030143457390009  9  5  5  9
     0.26475145523459  9  7  5 10
     0.61619816166549  9  9  6  6
    0.032089902052561  9  8  6  7
     0.29692079053602  9  7  6  8
    0.031616071356846  9  6  6  9
    0.096280403994609  9  2  7  1
  -0.0061347428884625  9  4  7  1
   0.0074171406047369  9 10  7  1
    0.087716971238186  9  1  7  2
    0.019023516728098  9  3  7  2
  -0.0040388510836597  9  5  7  2
    0.015824942756858  9  2  7  3
   -0.012489249537768  9  4  7  3
  -0.0088689686911915  9 10  7  3
  -0.0077625589174078  9  1  7  4
   -0.011950804526956  9  3  7  4
  -0.0097822840429261  9  5  7  4
  -0.0015496023343892  9  2  7  5
  -0.0095586787075409  9  4  7  5
    0.030659301795362  9 10  7  5
    0.032089902052561  9  8  7  6
     0.68037796577062  9  9  7  7
    0.031616071356846  9  6  7  8
     0.36015293324971  9  7  7  9
   0.0028361996471216  9  1  7 10
  -0.0070156092195825  9  3  7 10
    0.028923173371464  9  5  7 10
     0.29692079053602  9  7  8  6
    0.031616071356846  9  6  8  7
      0.6165425158764  9  9  8  8
    0.032232980130975  9  8  8  9
    0.084973847721775  9  1  9  1
    0.017684032197727  9  3  9  1
  -0.0020185919843321  9  5  9  1
    0.098913365887483  9  2  9  2
  -0.0063791375915836  9  4  9  2
    0.004664711349478  9 10  9  2
    0.017684032197727  9  1  9  3
    0.015446911289398  9  3  9  3
  -0.0025700245809912  9  5  9  3
  -0.0063791375915836  9  2  9  4
    0.015219750664568  9  4  9  4
  -0.0039029291442301  9 10  9  4
  -0.0020185919843321  9  1  9  5
  -0.0025700245809912  9  3  9  5
    0.030143457390009  9  5  9  5
    0.031616071356846  9  6  9  6
     0.36015293324971  9  7  9  7
    0.032232980130975  9  8  9  8
     0.68100847613835  9  9  9  9
    0.004664711349478  9  2  9 10
  -0.0039029291442301  9  4  9 10
     0.03314915256804  9 10  9 10
  -0.0057050559178493 10  2  1  1
   -0.018954562271171 10  4  1  1
     0.65505499284868 10 10  1  1
   -0.032523976362037 10  1  1  2
    -0.10506646651007 10  3  1  2
     0.28525285892426 10  5  1  2
   -0.041211530512144 10  2  1  3
    0.004262374473717 10  4  1  3
     0.11085945201427 10 10  1  3
  -0.0018793749780073 10  1  1  4
    0.031067485347169 10  3  1  4
    -0.08267888696269 10  5  1  4
    0.088754173035089 10  2  1  5
   -0.019104539731105 10  4  1  5
    0.051947047681805 10 10  1  5
   0.0074171406047369 10  8  1  6
   0.0074171406047369 10  9  1  7
   0.0028361996471217 10  6  1  8
   0.0028361996471216 10  7  1  9
    0.080654331961804 10  1  1 10
    0.028154934026352 10  3  1 10
   -0.023754738281299 10  5  1 10
   -0.032523976362037 10  1  2  1
    -0.10506646651007 10  3  2  1
     0.28525285892426 10  5  2  1
     -0.0247453226185 10  2  2  2
   -0.016411653276514 10  4  2  2
      0.6580190369646 10 10  2  2
   -0.031726647336151 10  1  2  3
   -0.053229375691848 10  3  2  3
     0.12467328271487 10  5  2  3
  -0.0029819921793176 10  2  2  4
   0.0020037546293441 10  4  2  4
    -0.12972642560506 10 10  2  4
    0.076779374726094 10  1  2  5
    0.027366962731882 10  3  2  5
   -0.029330315662191 10  5  2  5
  0.00077617968104336 10  6  2  6
  0.00077617968104336 10  7  2  7
    0.004664711349478 10  8  2  8
    0.004664711349478 10  9  2  9
    0.093944003339995 10  2  2 10
   -0.018616094834843 10  4  2 10
   -0.007121594313278 10 10  2 10
   -0.041211530512144 10  2  3  1
    0.004262374473717 10  4  3  1
     0.11085945201427 10 10  3  1
   -0.031726647336151 10  1  3  2
   -0.053229375691848 10  3  3  2
     0.12467328271487 10  5  3  2
  -0.0077019211319998 10  2  3  3
  -0.0045934910264935 10  4  3  3
     0.58325354475382 10 10  3  3
    0.027931364616917 10  1  3  4
    0.075517780617226 10  3  3  4
    -0.18498446133592 10  5  3  4
    0.012131842256102 10  2  3  5
  -0.0052119202518155 10  4  3  5
   -0.037428436703843 10 10  3  5
  -0.0088689686911915 10  8  3  6
  -0.0088689686911915 10  9  3  7
  -0.0070156092195825 10  6  3  8
  -0.0070156092195825 10  7  3  9
    0.028154934026352 10  1  3 10
    0.047108683388364 10  3  3 10
   -0.091231628963563 10  5  3 10
  -0.0018793749780073 10  1  4  1
    0.031067485347169 10  3  4  1
    -0.08267888696269 10  5  4  1
  -0.0029819921793176 10  2  4  2
   0.0020037546293441 10  4  4  2
    -0.12972642560506 10 10  4  2
    0.027931364616917 10  1  4  3
    0.075517780617226 10  3  4  3
    -0.18498446133592 10  5  4  3
   -0.016861562108678 10  2  4  4
   -0.010885696902514 10  4  4  4
     0.53897162065609 10 10  4  4
  -0.0025612962901823 10  1  4  5
    0.026182670749049 10  3  4  5
    -0.11262393880997 10  5  4  5
  -0.0045176450658998 10  6  4  6
  -0.0045176450658998 10  7  4  7
  -0.0039029291442301 10  8  4  8
  -0.0039029291442301 10  9  4  9
   -0.018616094834843 10  2  4 10
    0.018554023251514 10  4  4 10
    -0.03244116034022 10 10  4 10
    0.088754173035089 10  2  5  1
   -0.019104539731105 10  4  5  1
    0.051947047681805 10 10  5  1
    0.076779374726094 10  1  5  2
    0.027366962731882 10  3  5  2
   -0.029330315662191 10  5  5  2
    0.012131842256102 10  2  5  3
  -0.0052119202518155 10  4  5  3
   -0.037428436703843 10 10  5  3
  -0.0025612962901823 10  1  5  4
    0.026182670749049 10  3  5  4
    -0.11262393880997 10  5  5  4
  -0.0066949331309025 10  2  5  5
   -0.040043126244316 10  4  5  5
     0.68552728821161 10 10  5  5
    0.030659301795362 10  8  5  6
    0.030659301795362 10  9  5  7
    0.028923173371464 10  6  5  8
    0.028923173371464 10  7  5  9
   -0.023754738281299 10  1  5 10
   -0.091231628963563 10  3  5 10
     0.29107311818785 10  5  5 10
   0.0074171406047369 10  8  6  1
  0.00077617968104336 10  6  6  2
  -0.0088689686911915 10  8  6  3
  -0.0045176450658998 10  6  6  4
    0.030659301795362 10  8  6  5
   -0.003614255806261 10  2  6  6
   -0.020190467016659 10  4  6  6
     0.62736626408405 10 10  6  6
    -0.02135022110972 10  1  6  8
   -0.094053331560492 10  3  6  8
     0.26475145523459 10  5  6  8
    0.030688899201096 10  6  6 10
   0.0074171406047369 10  9  7  1
  0.00077617968104336 10  7  7  2
  -0.0088689686911915 10  9  7  3
  -0.0045176450658998 10  7  7  4
    0.030659301795362 10  9  7  5
   -0.003614255806261 10  2  7  7
   -0.020190467016659 10  4  7  7
     0.62736626408405 10 10  7  7
    -0.02135022110972 10  1  7  9
   -0.094053331560492 10  3  7  9
     0.26475145523459 10  5  7  9
    0.030688899201096 10  7  7 10
   0.0028361996471217 10  6  8  1
    0.004664711349478 10  8  8  2
  -0.0070156092195825 10  6  8  3
  -0.0039029291442301 10  8  8  4
    0.028923173371464 10  6  8  5
    -0.02135022110972 10  1  8  6
   -0.094053331560492 10  3  8  6
     0.26475145523459 10  5  8  6
  -0.0043395929923027 10  2  8  8
   -0.020106662452936 10  4  8  8
     0.62724484387762 10 10  8  8
     0.03314915256804 10  8  8 10
   0.0028361996471216 10  7  9  1
    0.004664711349478 10  9  9  2
  -0.0070156092195825 10  7  9  3
  -0.0039029291442301 10  9  9  4
    0.028923173371464 10  7  9  5
    -0.02135022110972 10  1  9  7
   -0.094053331560492 10  3  9  7
     0.26475145523459 10  5  9  7
  -0.0043395929923027 10  2  9  9
   -0.020106662452936 10  4  9  9
     0.62724484387762 10 10  9  9
     0.03314915256804 10  9  9 10
    0.080654331961804 10  1 10  1
    0.028154934026352 10  3 10  1
   -0.023754738281299 10  5 10  1