 &FCI NORB=   6,NELEC= 6,MS2=0,
  ORBSYM=2,2,0,0,1,1
  NPROP=   3    1    1
  PROPBITLEN=   8
  ISYM=1,
 &END
 (0.08274272689361481,-2.405483220021172e-16)    1    1    1    1
 (9.165789015645279e-07,0.0005026484717313243)    1    1    1    2
 (9.165789015668409e-07,-0.0005026484717313567)    1    1    2    1
 (0.08576448271513323,3.423187659260899e-16)    1    1    2    2
 (9.165789015390853e-07,0.0005026484717314307)    1    2    1    1
 (0.08120135125563115,0.000800918194809023)    1    2    1    2
 (0.08123030674642084,7.401486830834377e-17)    1    2    2    1
 (-5.420142861471688e-06,0.0004470655543547067)    1    2    2    2
 (9.165789015483372e-07,-0.0005026484717312919)    2    1    1    1
 (0.08123030674642097,-5.551115123125783e-17)    2    1    1    2
 (0.08120135125563116,-0.0008009181948091896)    2    1    2    1
 (-5.420142861561894e-06,-0.0004470655543546813)    2    1    2    2
 (0.08576448271513296,6.19874522082379e-16)    2    2    1    1
 (-5.420142861531825e-06,0.0004470655543547368)    2    2    1    2
 (-5.42014286156652e-06,-0.0004470655543547438)    2    2    2    1
 (0.09024687676375623,3.978299171573477e-16)    2    2    2    2
 (0.08186101361832362,1.572815951552305e-16)    1    1    3    3
 (-3.431058420863553e-06,-2.544261098099317e-17)    1    1    3    4
 (-3.431058420865866e-06,-2.775557561562891e-17)    1    1    4    3
 (0.08690937324226818,-7.401486830834376e-16)    1    1    4    4
 (6.38105019275248e-07,0.0004861601212855596)    1    2    3    3
 (-0.08135263297223014,-0.0004011961883637246)    1    2    3    4
 (-0.08135263297223014,-0.0004011961883637708)    1    2    4    3
 (-5.154140845608593e-06,0.0004662051415442227)    1    2    4    4
 (6.381050192127979e-07,-0.0004861601212855527)    2    1    3    3
 (-0.08135263297223005,0.0004011961883635025)    2    1    3    4
 (-0.08135263297223004,0.0004011961883634748)    2    1    4    3
 (-5.154140845592403e-06,-0.000466205141544195)    2    1    4    4
 (0.08490561873512231,1.110223024625157e-16)    2    2    3    3
 (3.19446226990557e-06,-2.081668171172169e-17)    2    2    3    4
 (3.194462269903257e-06,-3.006854025026465e-17)    2    2    4    3
 (0.09139367521622804,-3.14563190310461e-16)    2    2    4    4
 (0.08274272689361475,-2.127927463864883e-16)    1    1    5    5
 (9.165789015275205e-07,-0.0005026484717312966)    1    1    5    6
 (9.165789015113297e-07,0.0005026484717314469)    1    1    6    5
 (0.0857644827151329,6.568819562365509e-16)    1    1    6    6
 (9.165789008983941e-07,0.0005026484717313474)    1    2    5    5
 (0.08123030674642098,-1.017704439239727e-16)    1    2    5    6
 (0.08120135125563115,0.0008009181948090508)    1    2    6    5
 (-5.420142860918889e-06,0.0004470655543547484)    1    2    6    6
 (9.165789009215237e-07,-0.0005026484717313474)    2    1    5    5
 (0.08120135125563113,-0.0008009181948092081)    2    1    5    6
 (0.08123030674642086,9.25185853854297e-17)    2    1    6    5
 (-5.420142860930455e-06,-0.0004470655543547576)    2    1    6    6
 (0.08576448271513316,3.885780586188048e-16)    2    2    5    5
 (-5.420142861594275e-06,-0.0004470655543546906)    2    2    5    6
 (-5.42014286150407e-06,0.0004470655543547276)    2    2    6    5
 (0.0902468767637562,4.533410683886056e-16)    2    2    6    6
 (0.1634343278723954,0.01703055039091039)    1    3    1    5
 (0.003917525089839044,-0.03944002149577319)    1    3    1    6
 (0.00391752508983772,-0.03944002149577332)    1    3    2    5
 (0.165277448592189,0.01557965147098709)    1    3    2    6
 (0.00148670749264033,-0.01431036786297861)    1    4    1    5
 (-0.1005492719464051,-0.009977213596166462)    1    4    1    6
 (-0.1005492719464051,-0.009977213596166387)    1    4    2    5
 (0.001296319415196441,-0.01371489608275439)    1    4    2    6
 (-0.001384579255578823,0.0139919210042264)    2    3    1    5
 (0.1000392840634804,0.009428825553429932)    2    3    1    6
 (0.1000392840634804,0.009428825553429868)    2    3    2    5
 (-0.001208200494056733,0.01348362810576838)    2    3    2    6
 (-0.1659157667070556,-0.01646132474079962)    2    4    1    5
 (-0.003776990309491699,0.04011459863622349)    2    4    1    6
 (-0.003776990309490413,0.04011459863622364)    2    4    2    5
 (-0.1691585561188083,-0.01510317654476528)    2    4    2    6
 (0.1670207527794697,-3.515706244646329e-16)    1    3    3    1
 (0.0001180628255660066,-0.02323100674355886)    1    3    3    2
 (-4.274133312618758e-06,0.02357986761339851)    1    3    4    1
 (-0.1694640840975802,-0.0008375479794931288)    1    3    4    2
 (-4.27413331252624e-06,-0.02357986761339833)    1    4    3    1
 (-0.09900270552482948,-0.0004881327729071479)    1    4    3    2
 (0.09955372519379976,1.110223024625157e-16)    1    4    4    1
 (-0.0001213860875660203,0.02393232288150159)    1    4    4    2
 (0.000118062825565692,0.0232310067435582)    2    3    3    1
 (0.09849322938130342,-2.127927463864883e-16)    2    3    3    2
 (-0.09900270552482909,0.0004881327729072774)    2    3    4    1
 (4.112131097022687e-06,-0.0236049517118149)    2    3    4    2
 (-0.1694640840975798,0.0008375479794931288)    2    4    3    1
 (4.112131096550842e-06,0.02360495171181465)    2    4    3    2
 (-0.0001213860875663997,-0.0239323228815013)    2    4    4    1
 (0.1733689952662663,-1.850371707708594e-16)    2    4    4    2
 (0.1670207527794697,6.29126380620922e-16)    1    3    5    3
 (-4.274133311860107e-06,0.02357986761339854)    1    3    5    4
 (0.0001180628255663674,-0.02323100674355841)    1    3    6    3
 (-0.1694640840975798,-0.0008375479794932398)    1    3    6    4
 (-4.274133312193173e-06,-0.02357986761339837)    1    4    5    3
 (0.09955372519379979,-9.25185853854297e-17)    1    4    5    4
 (-0.09900270552482911,-0.0004881327729075365)    1    4    6    3
 (-0.0001213860875660759,0.02393232288150113)    1    4    6    4
 (0.0001180628255655902,0.02323100674355873)    2    3    5    3
 (-0.09900270552482951,0.0004881327729071201)    2    3    5    4
 (0.09849322938130345,4.625929269271485e-16)    2    3    6    3
 (4.112131096153012e-06,-0.02360495171181459)    2    3    6    4
 (-0.1694640840975801,0.0008375479794929067)    2    4    5    3
 (-0.0001213860875667327,-0.02393232288150184)    2    4    5    4
 (4.112131096301042e-06,0.02360495171181512)    2    4    6    3
 (0.1733689952662662,2.960594732333751e-16)    2    4    6    4
 (0.1634343278723954,0.01703055039091039)    1    5    1    3
 (0.00148670749264033,-0.01431036786297861)    1    5    1    4
 (-0.001384579255578823,0.0139919210042264)    1    5    2    3
 (-0.1659157667070556,-0.01646132474079962)    1    5    2    4
 (0.003917525089839044,-0.03944002149577319)    1    6    1    3
 (-0.1005492719464051,-0.009977213596166462)    1    6    1    4
 (0.1000392840634804,0.009428825553429932)    1    6    2    3
 (-0.003776990309491699,0.04011459863622349)    1    6    2    4
 (0.00391752508983772,-0.03944002149577332)    2    5    1    3
 (-0.1005492719464051,-0.009977213596166387)    2    5    1    4
 (0.1000392840634804,0.009428825553429868)    2    5    2    3
 (-0.003776990309490413,0.04011459863622364)    2    5    2    4
 (0.165277448592189,0.01557965147098709)    2    6    1    3
 (0.001296319415196441,-0.01371489608275439)    2    6    1    4
 (-0.001208200494056733,0.01348362810576838)    2    6    2    3
 (-0.1691585561188083,-0.01510317654476528)    2    6    2    4
 (0.1634343278723956,0.01703055039091035)    1    5    3    5
 (-0.001384579255578476,0.01399192100422629)    1    5    3    6
 (0.001486707492640784,-0.01431036786297888)    1    5    4    5
 (-0.1659157667070562,-0.01646132474080007)    1    5    4    6
 (0.003917525089838512,-0.03944002149577312)    1    6    3    5
 (0.1000392840634803,0.009428825553429405)    1    6    3    6
 (-0.1005492719464049,-0.009977213596166332)    1    6    4    5
 (-0.003776990309492105,0.04011459863622296)    1    6    4    6
 (0.003917525089837184,-0.03944002149577327)    2    5    3    5
 (0.1000392840634803,0.009428825553429332)    2    5    3    6
 (-0.1005492719464049,-0.009977213596166221)    2    5    4    5
 (-0.003776990309490847,0.04011459863622305)    2    5    4    6
 (0.1652774485921882,0.0155796514709857)    2    6    3    5
 (-0.001208200494056635,0.01348362810576813)    2    6    3    6
 (0.001296319415197223,-0.01371489608275447)    2    6    4    5
 (-0.1691585561188087,-0.01510317654476582)    2    6    4    6
 (0.1624940341610947,-9.25185853854297e-17)    1    5    5    1
 (-0.0001448171503471984,0.03023807107800294)    1    5    5    2
 (-0.0001448171503459332,0.03023807107800295)    1    5    6    1
 (0.1641798866820715,0.001616910441469277)    1    5    6    2
 (-0.0001448171503460605,-0.03023807107800293)    1    6    5    1
 (0.1040940332365705,3.885780586188048e-16)    1    6    5    2
 (0.1040940332365705,2.127927463864883e-16)    1    6    6    1
 (0.0001432547759006308,-0.02989555763606287)    1    6    6    2
 (-0.0001448171503473002,-0.03023807107800291)    2    5    5    1
 (0.1040940332365705,2.405483220021172e-16)    2    5    5    2
 (0.1040940332365705,2.775557561562891e-17)    2    5    6    1
 (0.0001432547758993633,-0.02989555763606287)    2    5    6    2
 (0.1641798866820716,-0.00161691044146948)    2    6    5    1
 (0.0001432547758990788,0.02989555763606307)    2    6    5    2
 (0.0001432547759003834,0.02989555763606303)    2    6    6    1
 (0.1673671906421974,7.216449660063518e-16)    2    6    6    2
 (0.1670207527794697,3.515706244646329e-16)    3    1    1    3
 (-4.274133312618758e-06,-0.02357986761339851)    3    1    1    4
 (0.0001180628255660066,0.02323100674355886)    3    1    2    3
 (-0.1694640840975802,0.0008375479794931288)    3    1    2    4
 (0.000118062825565692,-0.0232310067435582)    3    2    1    3
 (-0.09900270552482909,-0.0004881327729072774)    3    2    1    4
 (0.09849322938130342,2.127927463864883e-16)    3    2    2    3
 (4.112131097022687e-06,0.0236049517118149)    3    2    2    4
 (-4.27413331252624e-06,0.02357986761339833)    4    1    1    3
 (0.09955372519379976,-1.110223024625157e-16)    4    1    1    4
 (-0.09900270552482948,0.0004881327729071479)    4    1    2    3
 (-0.0001213860875660203,-0.02393232288150159)    4    1    2    4
 (-0.1694640840975798,-0.0008375479794931288)    4    2    1    3
 (-0.0001213860875663997,0.0239323228815013)    4    2    1    4
 (4.112131096550842e-06,-0.02360495171181465)    4    2    2    3
 (0.1733689952662663,1.850371707708594e-16)    4    2    2    4
 (0.1670207527794697,-6.29126380620922e-16)    3    1    3    5
 (0.0001180628255663674,0.02323100674355841)    3    1    3    6
 (-4.274133311860107e-06,-0.02357986761339854)    3    1    4    5
 (-0.1694640840975798,0.0008375479794932398)    3    1    4    6
 (0.0001180628255655902,-0.02323100674355873)    3    2    3    5
 (0.09849322938130345,-4.625929269271485e-16)    3    2    3    6
 (-0.09900270552482951,-0.0004881327729071201)    3    2    4    5
 (4.112131096153012e-06,0.02360495171181459)    3    2    4    6
 (-4.274133312193173e-06,0.02357986761339837)    4    1    3    5
 (-0.09900270552482911,0.0004881327729075365)    4    1    3    6
 (0.09955372519379979,9.25185853854297e-17)    4    1    4    5
 (-0.0001213860875660759,-0.02393232288150113)    4    1    4    6
 (-0.1694640840975801,-0.0008375479794929067)    4    2    3    5
 (4.112131096301042e-06,-0.02360495171181512)    4    2    3    6
 (-0.0001213860875667327,0.02393232288150184)    4    2    4    5
 (0.1733689952662662,-2.960594732333751e-16)    4    2    4    6
 (0.1634343278723954,-0.01703055039091039)    3    1    5    1
 (0.00391752508983772,0.03944002149577332)    3    1    5    2
 (0.003917525089839044,0.03944002149577319)    3    1    6    1
 (0.165277448592189,-0.01557965147098709)    3    1    6    2
 (-0.001384579255578823,-0.0139919210042264)    3    2    5    1
 (0.1000392840634804,-0.009428825553429868)    3    2    5    2
 (0.1000392840634804,-0.009428825553429932)    3    2    6    1
 (-0.001208200494056733,-0.01348362810576838)    3    2    6    2
 (0.00148670749264033,0.01431036786297861)    4    1    5    1
 (-0.1005492719464051,0.009977213596166387)    4    1    5    2
 (-0.1005492719464051,0.009977213596166462)    4    1    6    1
 (0.001296319415196441,0.01371489608275439)    4    1    6    2
 (-0.1659157667070556,0.01646132474079962)    4    2    5    1
 (-0.003776990309490413,-0.04011459863622364)    4    2    5    2
 (-0.003776990309491699,-0.04011459863622349)    4    2    6    1
 (-0.1691585561188083,0.01510317654476528)    4    2    6    2
 (0.08186101361832362,-1.572815951552305e-16)    3    3    1    1
 (6.381050192127979e-07,0.0004861601212855527)    3    3    1    2
 (6.38105019275248e-07,-0.0004861601212855596)    3    3    2    1
 (0.08490561873512231,-1.110223024625157e-16)    3    3    2    2
 (-3.431058420865866e-06,2.775557561562891e-17)    3    4    1    1
 (-0.08135263297223004,-0.0004011961883634748)    3    4    1    2
 (-0.08135263297223014,0.0004011961883637708)    3    4    2    1
 (3.194462269903257e-06,3.006854025026465e-17)    3    4    2    2
 (-3.431058420863553e-06,2.544261098099317e-17)    4    3    1    1
 (-0.08135263297223005,-0.0004011961883635025)    4    3    1    2
 (-0.08135263297223014,0.0004011961883637246)    4    3    2    1
 (3.19446226990557e-06,2.081668171172169e-17)    4    3    2    2
 (0.08690937324226818,7.401486830834376e-16)    4    4    1    1
 (-5.154140845592403e-06,0.000466205141544195)    4    4    1    2
 (-5.154140845608593e-06,-0.0004662051415442227)    4    4    2    1
 (0.09139367521622804,3.14563190310461e-16)    4    4    2    2
 (0.08100313342556115,1.850371707708594e-17)    3    3    3    3
 (-3.06966276392151e-06,-2.312964634635743e-17)    3    3    3    4
 (-3.069662763923823e-06,-2.312964634635743e-17)    3    3    4    3
 (0.08602166304267818,-1.942890293094024e-16)    3    3    4    4
 (-3.069662763979334e-06,3.238150488490039e-17)    3    4    3    3
 (0.08148966784978259,1.202741610010586e-16)    3    4    3    4
 (0.08148966784978258,1.572815951552305e-16)    3    4    4    3
 (2.832306431603537e-06,1.387778780781446e-17)    3    4    4    4
 (-3.069662763981647e-06,2.775557561562891e-17)    4    3    3    3
 (0.08148966784978259,1.387778780781446e-16)    4    3    3    4
 (0.08148966784978258,1.757853122323164e-16)    4    3    4    3
 (2.83230643160585e-06,4.625929269271485e-18)    4    3    4    4
 (0.08602166304267811,-1.295260195396016e-16)    4    4    3    3
 (2.832306431654422e-06,6.938893903907228e-18)    4    4    3    4
 (2.832306431654422e-06,-2.312964634635743e-18)    4    4    4    3
 (0.09257599521835769,1.387778780781446e-16)    4    4    4    4
 (0.08186101361832414,-2.498001805406602e-16)    3    3    5    5
 (6.381050192359276e-07,-0.0004861601212856036)    3    3    5    6
 (6.381050191688515e-07,0.0004861601212856429)    3    3    6    5
 (0.08490561873512198,4.718447854656915e-16)    3    3    6    6
 (-3.431058420121091e-06,-3.006854025026465e-17)    3    4    5    5
 (-0.08135263297223033,0.0004011961883637338)    3    4    5    6
 (-0.08135263297223035,-0.000401196188363632)    3    4    6    5
 (3.194462269248688e-06,9.251858538542971e-18)    3    4    6    6
 (-3.431058420118778e-06,-3.932039878880762e-17)    4    3    5    5
 (-0.0813526329722303,0.0004011961883636968)    4    3    5    6
 (-0.08135263297223033,-0.000401196188363669)    4    3    6    5
 (3.194462269251001e-06,4.625929269271485e-18)    4    3    6    6
 (0.08690937324226755,7.401486830834377e-17)    4    4    5    5
 (-5.154140845631723e-06,-0.0004662051415441926)    4    4    5    6
 (-5.15414084562941e-06,0.0004662051415442713)    4    4    6    5
 (0.09139367521622804,-4.348373513115196e-16)    4    4    6    6
 (0.1634343278723956,0.01703055039091035)    3    5    1    5
 (0.003917525089838512,-0.03944002149577312)    3    5    1    6
 (0.003917525089837184,-0.03944002149577327)    3    5    2    5
 (0.1652774485921882,0.0155796514709857)    3    5    2    6
 (-0.001384579255578476,0.01399192100422629)    3    6    1    5
 (0.1000392840634803,0.009428825553429405)    3    6    1    6
 (0.1000392840634803,0.009428825553429332)    3    6    2    5
 (-0.001208200494056635,0.01348362810576813)    3    6    2    6
 (0.001486707492640784,-0.01431036786297888)    4    5    1    5
 (-0.1005492719464049,-0.009977213596166332)    4    5    1    6
 (-0.1005492719464049,-0.009977213596166221)    4    5    2    5
 (0.001296319415197223,-0.01371489608275447)    4    5    2    6
 (-0.1659157667070562,-0.01646132474080007)    4    6    1    5
 (-0.003776990309492105,0.04011459863622296)    4    6    1    6
 (-0.003776990309490847,0.04011459863622305)    4    6    2    5
 (-0.1691585561188087,-0.01510317654476582)    4    6    2    6
 (0.1670207527794697,-6.29126380620922e-16)    3    5    3    1
 (0.0001180628255655902,-0.02323100674355873)    3    5    3    2
 (-4.274133312193173e-06,0.02357986761339837)    3    5    4    1
 (-0.1694640840975801,-0.0008375479794929067)    3    5    4    2
 (0.0001180628255663674,0.02323100674355841)    3    6    3    1
 (0.09849322938130345,-4.625929269271485e-16)    3    6    3    2
 (-0.09900270552482911,0.0004881327729075365)    3    6    4    1
 (4.112131096301042e-06,-0.02360495171181512)    3    6    4    2
 (-4.274133311860107e-06,-0.02357986761339854)    4    5    3    1
 (-0.09900270552482951,-0.0004881327729071201)    4    5    3    2
 (0.09955372519379979,9.25185853854297e-17)    4    5    4    1
 (-0.0001213860875667327,0.02393232288150184)    4    5    4    2
 (-0.1694640840975798,0.0008375479794932398)    4    6    3    1
 (4.112131096153012e-06,0.02360495171181459)    4    6    3    2
 (-0.0001213860875660759,-0.02393232288150113)    4    6    4    1
 (0.1733689952662662,-2.960594732333751e-16)    4    6    4    2
 (0.1670207527794697,-3.14563190310461e-16)    3    5    5    3
 (-4.27413331152704e-06,0.02357986761339861)    3    5    5    4
 (0.0001180628255662193,-0.0232310067435589)    3    5    6    3
 (-0.1694640840975801,-0.0008375479794930177)    3    5    6    4
 (0.000118062825565988,0.02323100674355826)    3    6    5    3
 (-0.09900270552482918,0.0004881327729075642)    3    6    5    4
 (0.09849322938130348,-1.942890293094024e-16)    3    6    6    3
 (4.11213109594947e-06,-0.023604951711815)    3    6    6    4
 (-4.274133311434521e-06,-0.0235798676133984)    4    5    5    3
 (0.09955372519379982,8.326672684688674e-17)    4    5    5    4
 (-0.09900270552482955,-0.0004881327729073884)    4    5    6    3
 (-0.0001213860875664274,0.02393232288150174)    4    5    6    4
 (-0.1694640840975799,0.0008375479794929808)    4    6    5    3
 (-0.000121386087566779,-0.02393232288150134)    4    6    5    4
 (4.112131095468374e-06,0.02360495171181479)    4    6    6    3
 (0.1733689952662662,-1.665334536937735e-16)    4    6    6    4
 (0.1624940341610947,9.25185853854297e-17)    5    1    1    5
 (-0.0001448171503459332,-0.03023807107800295)    5    1    1    6
 (-0.0001448171503471984,-0.03023807107800294)    5    1    2    5
 (0.1641798866820715,-0.001616910441469277)    5    1    2    6
 (-0.0001448171503473002,0.03023807107800291)    5    2    1    5
 (0.1040940332365705,-2.775557561562891e-17)    5    2    1    6
 (0.1040940332365705,-2.405483220021172e-16)    5    2    2    5
 (0.0001432547758993633,0.02989555763606287)    5    2    2    6
 (-0.0001448171503460605,0.03023807107800293)    6    1    1    5
 (0.1040940332365705,-2.127927463864883e-16)    6    1    1    6
 (0.1040940332365705,-3.885780586188048e-16)    6    1    2    5
 (0.0001432547759006308,0.02989555763606287)    6    1    2    6
 (0.1641798866820716,0.00161691044146948)    6    2    1    5
 (0.0001432547759003834,-0.02989555763606303)    6    2    1    6
 (0.0001432547758990788,-0.02989555763606307)    6    2    2    5
 (0.1673671906421974,-7.216449660063518e-16)    6    2    2    6
 (0.1634343278723954,-0.01703055039091039)    5    1    3    1
 (-0.001384579255578823,-0.0139919210042264)    5    1    3    2
 (0.00148670749264033,0.01431036786297861)    5    1    4    1
 (-0.1659157667070556,0.01646132474079962)    5    1    4    2
 (0.00391752508983772,0.03944002149577332)    5    2    3    1
 (0.1000392840634804,-0.009428825553429868)    5    2    3    2
 (-0.1005492719464051,0.009977213596166387)    5    2    4    1
 (-0.003776990309490413,-0.04011459863622364)    5    2    4    2
 (0.003917525089839044,0.03944002149577319)    6    1    3    1
 (0.1000392840634804,-0.009428825553429932)    6    1    3    2
 (-0.1005492719464051,0.009977213596166462)    6    1    4    1
 (-0.003776990309491699,-0.04011459863622349)    6    1    4    2
 (0.165277448592189,-0.01557965147098709)    6    2    3    1
 (-0.001208200494056733,-0.01348362810576838)    6    2    3    2
 (0.001296319415196441,0.01371489608275439)    6    2    4    1
 (-0.1691585561188083,0.01510317654476528)    6    2    4    2
 (0.1634343278723956,-0.01703055039091035)    5    1    5    3
 (0.001486707492640784,0.01431036786297888)    5    1    5    4
 (-0.001384579255578476,-0.01399192100422629)    5    1    6    3
 (-0.1659157667070562,0.01646132474080007)    5    1    6    4
 (0.003917525089837184,0.03944002149577327)    5    2    5    3
 (-0.1005492719464049,0.009977213596166221)    5    2    5    4
 (0.1000392840634803,-0.009428825553429332)    5    2    6    3
 (-0.003776990309490847,-0.04011459863622305)    5    2    6    4
 (0.003917525089838512,0.03944002149577312)    6    1    5    3
 (-0.1005492719464049,0.009977213596166332)    6    1    5    4
 (0.1000392840634803,-0.009428825553429405)    6    1    6    3
 (-0.003776990309492105,-0.04011459863622296)    6    1    6    4
 (0.1652774485921882,-0.0155796514709857)    6    2    5    3
 (0.001296319415197223,0.01371489608275447)    6    2    5    4
 (-0.001208200494056635,-0.01348362810576813)    6    2    6    3
 (-0.1691585561188087,0.01510317654476582)    6    2    6    4
 (0.1670207527794697,6.29126380620922e-16)    5    3    1    3
 (-4.274133312193173e-06,-0.02357986761339837)    5    3    1    4
 (0.0001180628255655902,0.02323100674355873)    5    3    2    3
 (-0.1694640840975801,0.0008375479794929067)    5    3    2    4
 (-4.274133311860107e-06,0.02357986761339854)    5    4    1    3
 (0.09955372519379979,-9.25185853854297e-17)    5    4    1    4
 (-0.09900270552482951,0.0004881327729071201)    5    4    2    3
 (-0.0001213860875667327,-0.02393232288150184)    5    4    2    4
 (0.0001180628255663674,-0.02323100674355841)    6    3    1    3
 (-0.09900270552482911,-0.0004881327729075365)    6    3    1    4
 (0.09849322938130345,4.625929269271485e-16)    6    3    2    3
 (4.112131096301042e-06,0.02360495171181512)    6    3    2    4
 (-0.1694640840975798,-0.0008375479794932398)    6    4    1    3
 (-0.0001213860875660759,0.02393232288150113)    6    4    1    4
 (4.112131096153012e-06,-0.02360495171181459)    6    4    2    3
 (0.1733689952662662,2.960594732333751e-16)    6    4    2    4
 (0.1670207527794697,3.14563190310461e-16)    5    3    3    5
 (0.0001180628255662193,0.0232310067435589)    5    3    3    6
 (-4.27413331152704e-06,-0.02357986761339861)    5    3    4    5
 (-0.1694640840975801,0.0008375479794930177)    5    3    4    6
 (-4.274133311434521e-06,0.0235798676133984)    5    4    3    5
 (-0.09900270552482955,0.0004881327729073884)    5    4    3    6
 (0.09955372519379982,-8.326672684688674e-17)    5    4    4    5
 (-0.0001213860875664274,-0.02393232288150174)    5    4    4    6
 (0.000118062825565988,-0.02323100674355826)    6    3    3    5
 (0.09849322938130348,1.942890293094024e-16)    6    3    3    6
 (-0.09900270552482918,-0.0004881327729075642)    6    3    4    5
 (4.11213109594947e-06,0.023604951711815)    6    3    4    6
 (-0.1694640840975799,-0.0008375479794929808)    6    4    3    5
 (4.112131095468374e-06,-0.02360495171181479)    6    4    3    6
 (-0.000121386087566779,0.02393232288150134)    6    4    4    5
 (0.1733689952662662,1.665334536937735e-16)    6    4    4    6
 (0.1634343278723956,-0.01703055039091035)    5    3    5    1
 (0.003917525089837184,0.03944002149577327)    5    3    5    2
 (0.003917525089838512,0.03944002149577312)    5    3    6    1
 (0.1652774485921882,-0.0155796514709857)    5    3    6    2
 (0.001486707492640784,0.01431036786297888)    5    4    5    1
 (-0.1005492719464049,0.009977213596166221)    5    4    5    2
 (-0.1005492719464049,0.009977213596166332)    5    4    6    1
 (0.001296319415197223,0.01371489608275447)    5    4    6    2
 (-0.001384579255578476,-0.01399192100422629)    6    3    5    1
 (0.1000392840634803,-0.009428825553429332)    6    3    5    2
 (0.1000392840634803,-0.009428825553429405)    6    3    6    1
 (-0.001208200494056635,-0.01348362810576813)    6    3    6    2
 (-0.1659157667070562,0.01646132474080007)    6    4    5    1
 (-0.003776990309490847,-0.04011459863622305)    6    4    5    2
 (-0.003776990309492105,-0.04011459863622296)    6    4    6    1
 (-0.1691585561188087,0.01510317654476582)    6    4    6    2
 (0.08274272689361475,2.127927463864883e-16)    5    5    1    1
 (9.165789009215237e-07,0.0005026484717313474)    5    5    1    2
 (9.165789008983941e-07,-0.0005026484717313474)    5    5    2    1
 (0.08576448271513316,-3.885780586188048e-16)    5    5    2    2
 (9.165789015113297e-07,-0.0005026484717314469)    5    6    1    1
 (0.08123030674642086,-9.25185853854297e-17)    5    6    1    2
 (0.08120135125563115,-0.0008009181948090508)    5    6    2    1
 (-5.42014286150407e-06,-0.0004470655543547276)    5    6    2    2
 (9.165789015275205e-07,0.0005026484717312966)    6    5    1    1
 (0.08120135125563113,0.0008009181948092081)    6    5    1    2
 (0.08123030674642098,1.017704439239727e-16)    6    5    2    1
 (-5.420142861594275e-06,0.0004470655543546906)    6    5    2    2
 (0.0857644827151329,-6.568819562365509e-16)    6    6    1    1
 (-5.420142860930455e-06,0.0004470655543547576)    6    6    1    2
 (-5.420142860918889e-06,-0.0004470655543547484)    6    6    2    1
 (0.0902468767637562,-4.533410683886056e-16)    6    6    2    2
 (0.08186101361832414,2.498001805406602e-16)    5    5    3    3
 (-3.431058420118778e-06,3.932039878880762e-17)    5    5    3    4
 (-3.431058420121091e-06,3.006854025026465e-17)    5    5    4    3
 (0.08690937324226755,-7.401486830834377e-17)    5    5    4    4
 (6.381050191688515e-07,-0.0004861601212856429)    5    6    3    3
 (-0.08135263297223033,0.000401196188363669)    5    6    3    4
 (-0.08135263297223035,0.000401196188363632)    5    6    4    3
 (-5.15414084562941e-06,-0.0004662051415442713)    5    6    4    4
 (6.381050192359276e-07,0.0004861601212856036)    6    5    3    3
 (-0.0813526329722303,-0.0004011961883636968)    6    5    3    4
 (-0.08135263297223033,-0.0004011961883637338)    6    5    4    3
 (-5.154140845631723e-06,0.0004662051415441926)    6    5    4    4
 (0.08490561873512198,-4.718447854656915e-16)    6    6    3    3
 (3.194462269251001e-06,-4.625929269271485e-18)    6    6    3    4
 (3.194462269248688e-06,-9.251858538542971e-18)    6    6    4    3
 (0.09139367521622804,4.348373513115196e-16)    6    6    4    4
 (0.08274272689361477,-2.498001805406602e-16)    5    5    5    5
 (9.165789008983941e-07,-0.0005026484717313451)    5    5    5    6
 (9.165789008822034e-07,0.0005026484717313567)    5    5    6    5
 (0.08576448271513318,3.700743415417188e-16)    5    5    6    6
 (9.165789008567607e-07,-0.0005026484717312873)    5    6    5    5
 (0.08120135125563116,-0.0008009181948092914)    5    6    5    6
 (0.08123030674642095,-5.551115123125783e-17)    5    6    6    5
 (-5.420142860969775e-06,-0.0004470655543546906)    5    6    6    6
 (9.165789008683256e-07,0.0005026484717314353)    6    5    5    5
 (0.08123030674642083,7.401486830834377e-17)    6    5    5    6
 (0.08120135125563116,0.0008009181948090786)    6    5    6    5
 (-5.420142860900386e-06,0.0004470655543547392)    6    5    6    6
 (0.08576448271513293,6.846375318521798e-16)    6    6    5    5
 (-5.420142860951271e-06,-0.0004470655543547739)    6    6    5    6
 (-5.420142860944333e-06,0.0004470655543547623)    6    6    6    5
 (0.09024687676375623,4.440892098500626e-16)    6    6    6    6
 (-0.2361333893805789,1.01047642475649e-16)    1    1  0  0
 (-2.026999360922599e-05,-0.002268684266322067)    2    1  0  0
 (-0.1549383194634906,1.196959198423997e-16)    2    2  0  0
 (-0.2430274963234142,2.465190328815662e-32)    3    3  0  0
 (8.97765716814658e-06,-6.404513826863768e-17)    4    3  0  0
 (-0.1450681061849859,-6.162975822039155e-33)    4    4  0  0
 (-0.2361333893805784,5.377642775528102e-17)    5    5  0  0
 (-2.026999361008641e-05,0.00226868426632215)    6    5  0  0
 (-0.1549383194634902,5.594483210025203e-17)    6    6  0  0
 (-0.8265834074959022,0)  0  0  0  0
 (-0.2436761328767698,0)    1    0    0    0
 (0.09246597558130956,0)    2    0    0    0
 (-0.2559799047211599,0)    3    0    0    0
 (0.1096705848889352,0)    4    0    0    0
 (-0.2436761328767688,0)    5    0    0    0
 (0.09246597558131064,0)    6    0    0    0
