 &FCI NORB= 4,NELEC=  4,MS2=  0
  ORBSYM=1,7,8,1,
  ISYM=1 UHF=.FALSE.
 &END
     0.53345474020919   1   1   1   1
   0.0024534623986481   1   4   1   1
     0.13231385894931   1   2   1   2
      0.1414688801377   1   3   1   3
    0.002453462398648   1   1   1   4
    0.077518460241017   1   4   1   4
     0.51499058899694   2   2   1   1
     0.13231385894931   2   1   1   2
     -0.1342045447941   2   4   1   2
   -0.077525870901418   2   2   1   4
     0.13231385894931   2   1   2   1
     -0.1342045447941   2   4   2   1
     0.59385643587559   2   2   2   2
    0.011091495076537   2   3   2   3
     -0.1342045447941   2   1   2   4
      0.1522323261488   2   4   2   4
     0.52028556711185   3   3   1   1
      0.1414688801377   3   1   1   3
     0.13457116860488   3   4   1   3
     0.07792560113574   3   3   1   4
     0.43786721307012   3   3   2   2
    0.011091495076537   3   2   2   3
      0.1414688801377   3   1   3   1
     0.13457116860488   3   4   3   1
    0.011091495076537   3   2   3   2
     0.59385643587559   3   3   3   3
     0.13457116860488   3   1   3   4
     0.14307730496041   3   4   3   4
   0.0024534623986481   4   1   1   1
     0.52232123700959   4   4   1   1
     -0.1342045447941   4   2   1   2
     0.13457116860488   4   3   1   3
    0.077518460241017   4   1   1   4
   -0.002111022495525   4   4   1   4
     -0.1342045447941   4   2   2   1
   -0.077525870901418   4   1   2   2
     0.53202096091229   4   4   2   2
      0.1522323261488   4   2   2   4
     0.13457116860488   4   3   3   1
     0.07792560113574   4   1   3   3
     0.52672598279738   4   4   3   3
     0.14307730496041   4   3   3   4
    0.077518460241017   4   1   4   1
   -0.002111022495525   4   4   4   1
      0.1522323261488   4   2   4   2
     0.14307730496041   4   3   4   3
  -0.0021110224955249   4   1   4   4
     0.55356163616592   4   4   4   4
     -2.1251530552943   1   1   0   0
    0.018393734611791   1   4   0   0
     -1.6161538636951   2   2   0   0
     -1.6161538634577   3   3   0   0
     0.01839373461179   4   1   0   0
     -1.0451360875929   4   4   0   0
     -0.6940309959045   1   0   0   0
     -0.1246301087705   2   0   0   0
     0.14759132169561   3   0   0   0
     0.83379752173129   4   0   0   0
      2.8650784326834   0   0   0   0
