 &FCI NORB=  8,NELEC= 10,MS2= 0,
  ORBSYM=1,1,2,3,5,5,6,7,
  ISYM=1,
 /
  0.7503716084478986E+00   1   1   1   1
 -0.1088942305670447E+00   2   1   1   1
  0.5115123299765277E-01   2   1   2   1
  0.5432350712332825E+00   2   2   1   1
 -0.1638871710132747E-01   2   2   2   1
  0.5856797923013514E+00   2   2   2   2
  0.6191035546591876E+00   3   3   1   1
 -0.4705498120474665E-01   3   3   2   1
  0.5183733880475947E+00   3   3   2   2
  0.5893477294691701E+00   3   3   3   3
  0.6191035546591876E+00   4   4   1   1
 -0.4705498120474665E-01   4   4   2   1
  0.5183733880475947E+00   4   4   2   2
  0.5411626400023755E+00   4   4   3   3
  0.5893477294691701E+00   4   4   4   4
  0.5127182244525845E+00   5   5   1   1
  0.8606011320599766E-03   5   5   2   1
  0.5580372529093871E+00   5   5   2   2
  0.5105419519458394E+00   5   5   3   3
  0.5105419519458394E+00   5   5   4   4
  0.5462802568842242E+00   5   5   5   5
 -0.7317359560015477E-01   6   5   1   1
  0.2912019638527575E-01   6   5   2   1
  0.2778246256039074E-01   6   5   2   2
 -0.4153324258589920E-01   6   5   3   3
 -0.4153324258589920E-01   6   5   4   4
  0.2011057271471829E-01   6   5   5   5
  0.4768261195495170E-01   6   5   6   5
  0.7261947786314341E+00   6   6   1   1
 -0.8740189302038928E-01   6   6   2   1
  0.5948754518415217E+00   6   6   2   2
  0.6213365849437057E+00   6   6   3   3
  0.6213365849437057E+00   6   6   4   4
  0.5603858920138169E+00   6   6   5   5
 -0.4499610599524367E-01   6   6   6   5
  0.7613054453210973E+00   6   6   6   6
  0.5975361203592165E+00   7   7   1   1
 -0.2931253309431175E-01   7   7   2   1
  0.5414371916937457E+00   7   7   2   2
  0.5881107129772891E+00   7   7   3   3
  0.5422768176778943E+00   7   7   4   4
  0.5366729251491178E+00   7   7   5   5
 -0.2823037908665832E-01   7   7   6   5
  0.6226865995895475E+00   7   7   6   6
  0.6058787670026142E+00   7   7   7   7
  0.5975361203592165E+00   8   8   1   1
 -0.2931253309431175E-01   8   8   2   1
  0.5414371916937457E+00   8   8   2   2
  0.5422768176778943E+00   8   8   3   3
  0.5881107129772891E+00   8   8   4   4
  0.5366729251491178E+00   8   8   5   5
 -0.2823037908665832E-01   8   8   6   5
  0.6226865995895475E+00   8   8   6   6
  0.5556397930515306E+00   8   8   7   7
  0.6058787670026142E+00   8   8   8   8
  0.1055159972693095E+00   3   1   3   1
  0.1398798062910743E-01   3   2   3   1
  0.2809164456815475E-01   3   2   3   2
  0.7407684528634965E-01   7   5   3   1
  0.3761875885102332E-01   7   5   3   2
  0.8237323633158404E-01   7   5   7   5
 -0.6209020978616125E-01   7   6   3   1
  0.1519154538626618E-03   7   6   3   2
 -0.3627727952796510E-01   7   6   7   5
  0.4745301940657843E-01   7   6   7   6
  0.1055159972693095E+00   4   1   4   1
  0.1398798062910743E-01   4   2   4   1
  0.2809164456815475E-01   4   2   4   2
  0.7407684528634965E-01   8   5   4   1
  0.3761875885102332E-01   8   5   4   2
  0.8237323633158404E-01   8   5   8   5
 -0.6209020978616125E-01   8   6   4   1
  0.1519154538626618E-03   8   6   4   2
 -0.3627727952796510E-01   8   6   8   5
  0.4745301940657843E-01   8   6   8   6
  0.2409254473300687E-01   4   3   4   3
  0.2291694764272344E-01   8   7   4   3
  0.2511948694117492E-01   8   7   8   7
  0.5540569860085904E-01   5   1   5   1
  0.9232884423351952E-01   5   2   5   1
  0.2245444290383011E+00   5   2   5   2
 -0.5883460525957843E-01   6   1   5   1
 -0.5768164218540827E-01   6   1   5   2
  0.1066969613876906E+00   6   1   6   1
  0.5371091186139346E-01   6   2   5   1
  0.1240793429949912E+00   6   2   5   2
 -0.5858529393871262E-01   6   2   6   1
  0.9096575302402179E-01   6   2   6   2
  0.9557012206897909E-01   7   3   5   1
  0.1575427900343737E+00   7   3   5   2
 -0.1022609199747888E+00   7   3   6   1
  0.9117684415958496E-01   7   3   6   2
  0.1869298430539837E+00   7   3   7   3
  0.9557012206897909E-01   8   4   5   1
  0.1575427900343737E+00   8   4   5   2
 -0.1022609199747888E+00   8   4   6   1
  0.9117684415958496E-01   8   4   6   2
  0.1490125154829237E+00   8   4   7   3
  0.1869298430539837E+00   8   4   8   4
  0.5061723543206224E-01   5   3   5   3
 -0.2390771036100746E-01   6   3   5   3
  0.3546503670993949E-01   6   3   6   3
  0.4263521823808643E-01   7   1   5   3
 -0.3410086101224148E-01   7   1   6   3
  0.4400847722651450E-01   7   1   7   1
  0.3923457895735107E-01   7   2   5   3
 -0.4685264235240628E-02   7   2   6   3
  0.2503600513132087E-01   7   2   7   1
  0.3839613315260628E-01   7   2   7   2
  0.5061723543206224E-01   5   4   5   4
 -0.2390771036100746E-01   6   4   5   4
  0.3546503670993949E-01   6   4   6   4
  0.4263521823808643E-01   8   1   5   4
 -0.3410086101224148E-01   8   1   6   4
  0.4400847722651450E-01   8   1   8   1
  0.3923457895735107E-01   8   2   5   4
 -0.4685264235240628E-02   8   2   6   4
  0.2503600513132087E-01   8   2   8   1
  0.3839613315260628E-01   8   2   8   2
  0.1895866377516037E-01   7   4   7   4
  0.1895866377516037E-01   8   3   7   4
  0.1895866377516037E-01   8   3   8   3
 -0.6469248319585792E+01   1   1   0   0
  0.4320864757149723E+00   2   1   0   0
 -0.5070742084253888E+01   2   2   0   0
 -0.5336349487259509E+01   3   3   0   0
 -0.5336349487259509E+01   4   4   0   0
 -0.5070517774879307E+01   5   5   0   0
  0.2542339807194676E+00   6   5   0   0
 -0.4795348042331526E+01   6   6   0   0
 -0.4957574322393286E+01   7   7   0   0
 -0.4957574322393286E+01   8   8   0   0
 -0.7634628382564527E+02   0   0   0   0
