 &FCI NORB=  8,NELEC= 12,MS2= 2,
  ORBSYM=1,1,2,3,5,5,6,7,
  ISYM=4,
 /
  0.7304461810802690E+00   1   1   1   1
  0.1124788671014175E+00   2   1   1   1
  0.7960247434497740E-01   2   1   2   1
  0.5960901721337670E+00   2   2   1   1
  0.1235426729790091E-01   2   2   2   1
  0.6422113594289238E+00   2   2   2   2
  0.6370540388360050E+00   3   3   1   1
  0.4562710949410616E-01   3   3   2   1
  0.5731834343710985E+00   3   3   2   2
  0.6308252201588024E+00   3   3   3   3
  0.6370540388360050E+00   4   4   1   1
  0.4562710949410616E-01   4   4   2   1
  0.5731834343710985E+00   4   4   2   2
  0.5815712515575608E+00   4   4   3   3
  0.6308252201588024E+00   4   4   4   4
  0.5715776878966177E+00   5   5   1   1
 -0.5033806921575970E-02   5   5   2   1
  0.6030986534466312E+00   5   5   2   2
  0.5727413400157563E+00   5   5   3   3
  0.5727413400157563E+00   5   5   4   4
  0.5928564475818509E+00   5   5   5   5
  0.9364530280590731E-01   6   5   1   1
  0.6205147768078459E-01   6   5   2   1
 -0.1785743026254440E-01   6   5   2   2
  0.5103516991429240E-01   6   5   3   3
  0.5103516991429240E-01   6   5   4   4
 -0.7510761894883918E-02   6   5   5   5
  0.7271999991168288E-01   6   5   6   5
  0.7329490442432814E+00   6   6   1   1
  0.9321882546018935E-01   6   6   2   1
  0.6552256796017499E+00   6   6   2   2
  0.6514679458571916E+00   6   6   3   3
  0.6514679458571916E+00   6   6   4   4
  0.6166043381181364E+00   6   6   5   5
  0.6880771973199429E-01   6   6   6   5
  0.7922510935011687E+00   6   6   6   6
  0.6285140239164168E+00   7   7   1   1
  0.2899246672575279E-01   7   7   2   1
  0.5880370670847578E+00   7   7   2   2
  0.6374019352811562E+00   7   7   3   3
  0.5872618886218772E+00   7   7   4   4
  0.5911157791812162E+00   7   7   5   5
  0.3989688014619036E-01   7   7   6   5
  0.6554134269086398E+00   7   7   6   6
  0.6527913807204712E+00   7   7   7   7
  0.6285140239164168E+00   8   8   1   1
  0.2899246672575279E-01   8   8   2   1
  0.5880370670847578E+00   8   8   2   2
  0.5872618886218772E+00   8   8   3   3
  0.6374019352811562E+00   8   8   4   4
  0.5911157791812162E+00   8   8   5   5
  0.3989688014619036E-01   8   8   6   5
  0.6554134269086398E+00   8   8   6   6
  0.5988706400082541E+00   8   8   7   7
  0.6527913807204712E+00   8   8   8   8
  0.1018818075481082E+00   3   1   3   1
 -0.1200566313087192E-01   3   2   3   1
  0.3059422528398380E-01   3   2   3   2
  0.8858137269127339E-01   7   5   3   1
 -0.3398111414167375E-01   7   5   3   2
  0.9686436897977503E-01   7   5   7   5
  0.4876108594597715E-01   7   6   3   1
  0.1231044961775385E-01   7   6   3   2
  0.2987633311187748E-01   7   6   7   5
  0.4052160479385784E-01   7   6   7   6
  0.1018818075481082E+00   4   1   4   1
 -0.1200566313087192E-01   4   2   4   1
  0.3059422528398380E-01   4   2   4   2
  0.8858137269127339E-01   8   5   4   1
 -0.3398111414167375E-01   8   5   4   2
  0.9686436897977503E-01   8   5   8   5
  0.4876108594597715E-01   8   6   4   1
  0.1231044961775385E-01   8   6   4   2
  0.2987633311187748E-01   8   6   8   5
  0.4052160479385784E-01   8   6   8   6
  0.2462698430062075E-01   4   3   4   3
  0.2507002332963941E-01   8   7   4   3
  0.2696037035610865E-01   8   7   8   7
  0.1245835275482913E+00   5   1   5   1
 -0.1254046867826638E+00   5   2   5   1
  0.1974166379211867E+00   5   2   5   2
  0.7639084502700531E-01   6   1   5   1
 -0.1631902846270338E-01   6   1   5   2
  0.1088595570555432E+00   6   1   6   1
  0.1246385915480548E+00   6   2   5   1
 -0.1511174853611966E+00   6   2   5   2
  0.7190110522202522E-01   6   2   6   1
  0.1628993643380400E+00   6   2   6   2
  0.1653364580437168E+00   7   3   5   1
 -0.1626265192987371E+00   7   3   5   2
  0.1003931056077473E+00   7   3   6   1
  0.1567785611841174E+00   7   3   6   2
  0.2476053803017284E+00   7   3   7   3
  0.1653364580437168E+00   8   4   5   1
 -0.1626265192987371E+00   8   4   5   2
  0.1003931056077473E+00   8   4   6   1
  0.1567785611841174E+00   8   4   6   2
  0.2022477780339158E+00   8   4   7   3
  0.2476053803017284E+00   8   4   8   4
  0.7063420778241772E-01   5   3   5   3
  0.2203594919102921E-01   6   3   5   3
  0.3321397593431998E-01   6   3   6   3
  0.6281967984355967E-01   7   1   5   3
  0.3146892620064504E-01   7   1   6   3
  0.6125132241559157E-01   7   1   7   1
 -0.3839323951009999E-01   7   2   5   3
  0.7258488939646317E-02   7   2   6   3
 -0.2544657508647704E-01   7   2   7   1
  0.3497455732381928E-01   7   2   7   2
  0.7063420778241772E-01   5   4   5   4
  0.2203594919102921E-01   6   4   5   4
  0.3321397593431998E-01   6   4   6   4
  0.6281967984355967E-01   8   1   5   4
  0.3146892620064504E-01   8   1   6   4
  0.6125132241559157E-01   8   1   8   1
 -0.3839323951009999E-01   8   2   5   4
  0.7258488939646317E-02   8   2   6   4
 -0.2544657508647704E-01   8   2   8   1
  0.3497455732381928E-01   8   2   8   2
  0.2267880113390633E-01   7   4   7   4
  0.2267880113390633E-01   8   3   7   4
  0.2267880113390633E-01   8   3   8   3
 -0.7946803465431994E+01   1   1   0   0
 -0.5301214801149827E+00   2   1   0   0
 -0.6715099562898604E+01   2   2   0   0
 -0.6796537735782623E+01   3   3   0   0
 -0.6796537735782623E+01   4   4   0   0
 -0.6850319858483207E+01   5   5   0   0
 -0.4287778319816460E+00   6   5   0   0
 -0.6757197475919593E+01   6   6   0   0
 -0.6587067991321311E+01   7   7   0   0
 -0.6587067991321311E+01   8   8   0   0
 -1.5449783005191795E+00   1   0   0   0
 -0.5788848008129259E+00   2   0   0   0
 -0.5748278777928961E+00   3   0   0   0
 -0.5748278777928961E+00   4   0   0   0
 -0.9950467598034918E+00   5   0   0   0
  0.7176308072850240E+00   6   0   0   0
 -0.0739948881148496E+00   7   0   0   0
 -0.0739948881148496E+00   8   0   0   0
 -0.1012576127075440E+03   0   0   0   0
