 &FCI NORB=           24 ,NELEC=          24 ,MS2=            0 ,
  ORBSYM=
                      0,                      0,                      0,                      0,                      0,                      0,                      0,                      0,                      0,                      0,                      0,                      0,                      0,                      0,                      0,                      0,                      0,                      0,                      0,                      0,                      0,                      0,                      0,                      0,
  ISYM=           1
 NPROP =           1           1           1
 PROPBITLEN=          15
 &END
   0.336284825692      1  1  1  1
   0.143117783964E-07  1  1  1  2
   0.148510919033E-07  1  1  1  3
  -0.181216517904E-08  1  1  1  4
   0.421303485933E-09  1  1  1  5
  -0.351061736391E-02  1  1  1  6
   0.549765885503E-15  1  1  1  7
  -0.578954700150E-15  1  1  1  8
  -0.492415058339E-17  1  1  1  9
  -0.169377312427E-15  1  1  1 10
   0.259337170793E-15  1  1  1 11
  -0.723914334289E-16  1  1  1 12
   0.190300792557E-15  1  1  1 13
   0.202438574301E-15  1  1  1 14
   0.255127636034E-16  1  1  1 15
  -0.765391978237E-16  1  1  1 16
  -0.577443402074E-07  1  1  1 17
   0.389185037525E-18  1  1  1 18
  -0.202921870328E-17  1  1  1 19
   0.352587736998E-09  1  1  1 20
  -0.310128172342E-09  1  1  1 21
  -0.673016177901E-09  1  1  1 22
   0.716704044859E-09  1  1  1 23
  -0.650675923618E-07  1  1  1 24
   0.143117783965E-07  1  2  1  1
   0.111641080644      1  2  1  2
  -0.561837419861E-09  1  2  1  3
   0.626749876310E-03  1  2  1  4
  -0.155494140766E-02  1  2  1  5
   0.121080527392E-08  1  2  1  6
   0.889741964604E-16  1  2  1  7
  -0.190064152211E-15  1  2  1  8
  -0.244806308902E-16  1  2  1  9
  -0.309928807417E-16  1  2  1 10
   0.146751002235E-14  1  2  1 11
  -0.251035455419E-15  1  2  1 12
   0.261133438510E-15  1  2  1 13
   0.282509488173E-15  1  2  1 14
  -0.103346638906E-15  1  2  1 15
   0.338572007589E-15  1  2  1 16
  -0.712184042807E-09  1  2  1 17
   0.631460120246E-16  1  2  1 18
  -0.328794919222E-15  1  2  1 19
   0.517620970045E-04  1  2  1 20
  -0.738787320289E-05  1  2  1 21
  -0.957289074508E-02  1  2  1 22
  -0.176749176262E-03  1  2  1 23
  -0.106679676120E-08  1  2  1 24
   0.148510919033E-07  1  3  1  1
  -0.561837421850E-09  1  3  1  2
   0.111641079953      1  3  1  3
   0.155495958484E-02  1  3  1  4
   0.626752962999E-03  1  3  1  5
   0.222202342430E-08  1  3  1  6
   0.866839569636E-16  1  3  1  7
  -0.130417846302E-15  1  3  1  8
  -0.581006737319E-16  1  3  1  9
  -0.139397463931E-14  1  3  1 10
   0.131679639002E-14  1  3  1 11
  -0.279677526760E-15  1  3  1 12
   0.210033289104E-15  1  3  1 13
   0.263307062233E-15  1  3  1 14
   0.118939270998E-15  1  3  1 15
  -0.319569374551E-15  1  3  1 16
   0.878622050888E-09  1  3  1 17
   0.288707593111E-16  1  3  1 18
  -0.155304471747E-15  1  3  1 19
  -0.738765821649E-05  1  3  1 20
  -0.517572527653E-04  1  3  1 21
  -0.176749682693E-03  1  3  1 22
   0.957289123294E-02  1  3  1 23
   0.104361550206E-08  1  3  1 24
  -0.181216517912E-08  1  4  1  1
   0.626749876354E-03  1  4  1  2
   0.155495958494E-02  1  4  1  3
   0.523446207332E-01  1  4  1  4
  -0.100499535991E-08  1  4  1  5
  -0.631300540352E-08  1  4  1  6
   0.865930042609E-16  1  4  1  7
  -0.106114884295E-15  1  4  1  8
  -0.342557883937E-16  1  4  1  9
  -0.256654418631E-15  1  4  1 10
   0.767259477048E-17  1  4  1 11
   0.654876274805E-17  1  4  1 12
   0.196662123935E-15  1  4  1 13
   0.193260979257E-15  1  4  1 14
   0.177962623511E-15  1  4  1 15
  -0.397415614861E-15  1  4  1 16
   0.128487213165E-08  1  4  1 17
   0.430683360744E-16  1  4  1 18
  -0.169533167790E-15  1  4  1 19
  -0.223019044072E-02  1  4  1 20
   0.900467720316E-02  1  4  1 21
   0.959828812100E-03  1  4  1 22
  -0.225971868715E-02  1  4  1 23
  -0.109418322298E-09  1  4  1 24
   0.421303485906E-09  1  5  1  1
  -0.155494140777E-02  1  5  1  2
   0.626752963043E-03  1  5  1  3
  -0.100499535620E-08  1  5  1  4
   0.523446241094E-01  1  5  1  5
   0.276748303117E-08  1  5  1  6
   0.124952100444E-15  1  5  1  7
  -0.137257042184E-15  1  5  1  8
  -0.181291583950E-16  1  5  1  9
  -0.137077651661E-15  1  5  1 10
   0.106194722060E-15  1  5  1 11
  -0.363154193641E-16  1  5  1 12
   0.583042931116E-15  1  5  1 13
   0.581482146519E-15  1  5  1 14
  -0.100428540384E-15  1  5  1 15
   0.259846531890E-15  1  5  1 16
   0.335665128426E-08  1  5  1 17
   0.834385109873E-16  1  5  1 18
  -0.511478394884E-15  1  5  1 19
   0.900467663961E-02  1  5  1 20
   0.223019070023E-02  1  5  1 21
  -0.225971981160E-02  1  5  1 22
  -0.959828837493E-03  1  5  1 23
   0.982973152540E-10  1  5  1 24
  -0.351061736415E-02  1  6  1  1
   0.121080527392E-08  1  6  1  2
   0.222202342434E-08  1  6  1  3
  -0.631300540365E-08  1  6  1  4
   0.276748303121E-08  1  6  1  5
   0.344564596917E-01  1  6  1  6
   0.261713445017E-16  1  6  1  7
  -0.247092980722E-16  1  6  1  8
   0.403642963110E-17  1  6  1  9
   0.971060063134E-16  1  6  1 10
   0.910121668668E-17  1  6  1 11
   0.217064440179E-17  1  6  1 12
   0.176175152153E-17  1  6  1 13
   0.807037728835E-17  1  6  1 14
  -0.171864256991E-16  1  6  1 15
   0.632333282933E-16  1  6  1 16
  -0.812727750694E-07  1  6  1 17
  -0.693557237808E-17  1  6  1 18
  -0.577726920571E-17  1  6  1 19
  -0.771994636543E-09  1  6  1 20
   0.125382734486E-08  1  6  1 21
   0.124131136828E-09  1  6  1 22
  -0.148970136897E-09  1  6  1 23
  -0.580620099038E-07  1  6  1 24
   0.549765885525E-15  1  7  1  1
   0.889741964651E-16  1  7  1  2
   0.866839569667E-16  1  7  1  3
   0.865930042637E-16  1  7  1  4
   0.124952100448E-15  1  7  1  5
   0.261713445002E-16  1  7  1  6
   0.360176116534E-01  1  7  1  7
   0.564902419083E-16  1  7  1  8
   0.148183794934E-08  1  7  1  9
  -0.152940560750E-08  1  7  1 10
   0.429417592200E-08  1  7  1 11
   0.316794418023E-08  1  7  1 12
  -0.121264878122E-09  1  7  1 13
   0.494019959754E-11  1  7  1 14
  -0.962658260236E-09  1  7  1 15
   0.352810441651E-09  1  7  1 16
  -0.100815835408E-16  1  7  1 17
   0.356447407805E-07  1  7  1 18
   0.440221406792E-07  1  7  1 19
   0.233682135861E-16  1  7  1 20
   0.458551320178E-16  1  7  1 21
  -0.140387862210E-16  1  7  1 22
   0.224580161548E-16  1  7  1 23
   0.433649669094E-18  1  7  1 24
  -0.578954700172E-15  1  8  1  1
  -0.190064152217E-15  1  8  1  2
  -0.130417846306E-15  1  8  1  3
  -0.106114884299E-15  1  8  1  4
  -0.137257042188E-15  1  8  1  5
  -0.247092980707E-16  1  8  1  6
   0.564625653230E-16  1  8  1  7
   0.360176116534E-01  1  8  1  8
   0.152588739886E-08  1  8  1  9
   0.148490975540E-08  1  8  1 10
  -0.316652301132E-08  1  8  1 11
   0.429539740209E-08  1  8  1 12
   0.407647679131E-11  1  8  1 13
   0.121172333434E-09  1  8  1 14
  -0.352692700270E-09  1  8  1 15
  -0.962697097918E-09  1  8  1 16
   0.122141010205E-16  1  8  1 17
   0.440221238779E-07  1  8  1 18
  -0.356446757679E-07  1  8  1 19
  -0.255249879302E-16  1  8  1 20
  -0.547931450747E-16  1  8  1 21
   0.308354201753E-16  1  8  1 22
  -0.273763307814E-16  1  8  1 23
   0.455834249163E-18  1  8  1 24
  -0.492415058334E-17  1  9  1  1
  -0.244806308903E-16  1  9  1  2
  -0.581006737329E-16  1  9  1  3
  -0.342557883941E-16  1  9  1  4
  -0.181291583935E-16  1  9  1  5
   0.403642963098E-17  1  9  1  6
   0.148183794936E-08  1  9  1  7
   0.152588739888E-08  1  9  1  8
   0.281106672435E-01  1  9  1  9
   0.184975212074E-10  1  9  1 10
  -0.150380010314E-10  1  9  1 11
  -0.132549639274E-09  1  9  1 12
   0.160620350067E-03  1  9  1 13
  -0.178732245495E-03  1  9  1 14
   0.755365311351E-04  1  9  1 15
   0.363581185633E-04  1  9  1 16
   0.635502157826E-18  1  9  1 17
  -0.536751335655E-09  1  9  1 18
  -0.483081136362E-10  1  9  1 19
  -0.538952877801E-18  1  9  1 20
  -0.218002973168E-16  1  9  1 21
   0.832675226999E-17  1  9  1 22
  -0.584299471203E-17  1  9  1 23
  -0.940956798388E-19  1  9  1 24
  -0.169377312431E-15  1 10  1  1
  -0.309928807350E-16  1 10  1  2
  -0.139397463933E-14  1 10  1  3
  -0.256654418634E-15  1 10  1  4
  -0.137077651637E-15  1 10  1  5
   0.971060063130E-16  1 10  1  6
  -0.152940560753E-08  1 10  1  7
   0.148490975540E-08  1 10  1  8
   0.184975212091E-10  1 10  1  9
   0.281106672303E-01  1 10  1 10
   0.137730253390E-09  1 10  1 11
  -0.863739795799E-11  1 10  1 12
  -0.178627947198E-03  1 10  1 13
  -0.160513866203E-03  1 10  1 14
  -0.365180159586E-04  1 10  1 15
   0.759314348859E-04  1 10  1 16
  -0.295926697642E-16  1 10  1 17
  -0.482889112520E-10  1 10  1 18
   0.536589129703E-09  1 10  1 19
   0.105879971138E-16  1 10  1 20
  -0.179754835841E-15  1 10  1 21
   0.411306031172E-16  1 10  1 22
  -0.172898479446E-15  1 10  1 23
   0.856692905588E-17  1 10  1 24
   0.259337170800E-15  1 11  1  1
   0.146751002237E-14  1 11  1  2
   0.131679639003E-14  1 11  1  3
   0.767259476907E-17  1 11  1  4
   0.106194722089E-15  1 11  1  5
   0.910121668697E-17  1 11  1  6
   0.429417592200E-08  1 11  1  7
  -0.316652301126E-08  1 11  1  8
  -0.150380010297E-10  1 11  1  9
   0.137730253377E-09  1 11  1 10
   0.281106672617E-01  1 11  1 11
  -0.168073899194E-11  1 11  1 12
  -0.696624628581E-04  1 11  1 13
  -0.473648894089E-04  1 11  1 14
   0.132474367119E-03  1 11  1 15
  -0.200310580825E-03  1 11  1 16
   0.452682540106E-15  1 11  1 17
   0.827834434505E-11  1 11  1 18
   0.182796051506E-09  1 11  1 19
   0.862665543581E-16  1 11  1 20
   0.652796763971E-16  1 11  1 21
  -0.240103452000E-15  1 11  1 22
   0.216765069039E-15  1 11  1 23
  -0.459634481546E-16  1 11  1 24
  -0.723914334311E-16  1 12  1  1
  -0.251035455423E-15  1 12  1  2
  -0.279677526763E-15  1 12  1  3
   0.654876274849E-17  1 12  1  4
  -0.363154193704E-16  1 12  1  5
   0.217064440180E-17  1 12  1  6
   0.316794418021E-08  1 12  1  7
   0.429539740209E-08  1 12  1  8
  -0.132549639274E-09  1 12  1  9
  -0.863739795968E-11  1 12  1 10
  -0.168073898178E-11  1 12  1 11
   0.281106672056E-01  1 12  1 12
  -0.470229676630E-04  1 12  1 13
   0.694082826990E-04  1 12  1 14
   0.200455039632E-03  1 12  1 15
   0.132511087581E-03  1 12  1 16
  -0.100028073286E-15  1 12  1 17
   0.182297463526E-09  1 12  1 18
  -0.837035583098E-11  1 12  1 19
  -0.285382477095E-16  1 12  1 20
  -0.102219065585E-16  1 12  1 21
   0.434440398325E-16  1 12  1 22
  -0.464403213641E-16  1 12  1 23
   0.118712506295E-16  1 12  1 24
   0.190300792558E-15  1 13  1  1
   0.261133438511E-15  1 13  1  2
   0.210033289105E-15  1 13  1  3
   0.196662123937E-15  1 13  1  4
   0.583042931125E-15  1 13  1  5
   0.176175152280E-17  1 13  1  6
  -0.121264878108E-09  1 13  1  7
   0.407647677481E-11  1 13  1  8
   0.160620350066E-03  1 13  1  9
  -0.178627947198E-03  1 13  1 10
  -0.696624628581E-04  1 13  1 11
  -0.470229676630E-04  1 13  1 12
   0.187077986979E-01  1 13  1 13
   0.869339303534E-11  1 13  1 14
  -0.122116750695E-09  1 13  1 15
   0.566429074800E-10  1 13  1 16
   0.432337108721E-15  1 13  1 17
  -0.149864710541E-08  1 13  1 18
  -0.200352182320E-08  1 13  1 19
   0.372517725287E-15  1 13  1 20
   0.226291908469E-15  1 13  1 21
  -0.911567570586E-16  1 13  1 22
  -0.536311895305E-17  1 13  1 23
  -0.433082604104E-16  1 13  1 24
   0.202438574303E-15  1 14  1  1
   0.282509488175E-15  1 14  1  2
   0.263307062234E-15  1 14  1  3
   0.193260979259E-15  1 14  1  4
   0.581482146529E-15  1 14  1  5
   0.807037728970E-17  1 14  1  6
   0.494019960636E-11  1 14  1  7
   0.121172333416E-09  1 14  1  8
  -0.178732245495E-03  1 14  1  9
  -0.160513866203E-03  1 14  1 10
  -0.473648894089E-04  1 14  1 11
   0.694082826990E-04  1 14  1 12
   0.869339302833E-11  1 14  1 13
   0.187077987083E-01  1 14  1 14
   0.480359122433E-10  1 14  1 15
   0.134930349998E-09  1 14  1 16
   0.461492383922E-15  1 14  1 17
   0.200345759378E-08  1 14  1 18
  -0.149874170811E-08  1 14  1 19
   0.375996117204E-15  1 14  1 20
   0.222775276938E-15  1 14  1 21
  -0.955437183643E-16  1 14  1 22
   0.408039790462E-17  1 14  1 23
  -0.459045447339E-16  1 14  1 24
   0.255127636035E-16  1 15  1  1
  -0.103346638906E-15  1 15  1  2
   0.118939270999E-15  1 15  1  3
   0.177962623514E-15  1 15  1  4
  -0.100428540386E-15  1 15  1  5
  -0.171864256989E-16  1 15  1  6
  -0.962658260188E-09  1 15  1  7
  -0.352692700243E-09  1 15  1  8
   0.755365311350E-04  1 15  1  9
  -0.365180159586E-04  1 15  1 10
   0.132474367119E-03  1 15  1 11
   0.200455039632E-03  1 15  1 12
  -0.122116750719E-09  1 15  1 13
   0.480359122840E-10  1 15  1 14
   0.187077986105E-01  1 15  1 15
  -0.752470073519E-11  1 15  1 16
  -0.572617388853E-16  1 15  1 17
   0.112096863890E-09  1 15  1 18
   0.665719920715E-10  1 15  1 19
  -0.665535815160E-16  1 15  1 20
   0.459730745443E-16  1 15  1 21
   0.281842605246E-16  1 15  1 22
   0.152026805557E-16  1 15  1 23
   0.455521455560E-17  1 15  1 24
  -0.765391978240E-16  1 16  1  1
   0.338572007590E-15  1 16  1  2
  -0.319569374553E-15  1 16  1  3
  -0.397415614867E-15  1 16  1  4
   0.259846531895E-15  1 16  1  5
   0.632333282928E-16  1 16  1  6
   0.352810441637E-09  1 16  1  7
  -0.962697097918E-09  1 16  1  8
   0.363581185633E-04  1 16  1  9
   0.759314348858E-04  1 16  1 10
  -0.200310580824E-03  1 16  1 11
   0.132511087581E-03  1 16  1 12
   0.566429075139E-10  1 16  1 13
   0.134930350032E-09  1 16  1 14
  -0.752470071913E-11  1 16  1 15
   0.187077985638E-01  1 16  1 16
   0.120396869157E-15  1 16  1 17
   0.669852779818E-10  1 16  1 18
  -0.109859805281E-09  1 16  1 19
   0.154243654544E-15  1 16  1 20
  -0.805771011638E-16  1 16  1 21
  -0.834818109813E-16  1 16  1 22
  -0.482951902474E-16  1 16  1 23
  -0.742253597041E-17  1 16  1 24
  -0.577443402066E-07  1 17  1  1
  -0.712184042861E-09  1 17  1  2
   0.878622050888E-09  1 17  1  3
   0.128487213171E-08  1 17  1  4
   0.335665128446E-08  1 17  1  5
  -0.812727750754E-07  1 17  1  6
  -0.100815835420E-16  1 17  1  7
   0.122141010220E-16  1 17  1  8
   0.635502157827E-18  1 17  1  9
  -0.295926697637E-16  1 17  1 10
   0.452682540101E-15  1 17  1 11
  -0.100028073284E-15  1 17  1 12
   0.432337108720E-15  1 17  1 13
   0.461492383920E-15  1 17  1 14
  -0.572617388851E-16  1 17  1 15
   0.120396869157E-15  1 17  1 16
   0.315005700980E-01  1 17  1 17
   0.732451468388E-16  1 17  1 18
  -0.554481583246E-15  1 17  1 19
   0.405809685835E-08  1 17  1 20
   0.287661038209E-08  1 17  1 21
   0.180723703900E-09  1 17  1 22
   0.214061371926E-10  1 17  1 23
  -0.188163973982E-02  1 17  1 24
   0.389185037618E-18  1 18  1  1
   0.631460120248E-16  1 18  1  2
   0.288707593110E-16  1 18  1  3
   0.430683360752E-16  1 18  1  4
   0.834385109890E-16  1 18  1  5
  -0.693557237793E-17  1 18  1  6
   0.356447407798E-07  1 18  1  7
   0.440221238770E-07  1 18  1  8
  -0.536751335601E-09  1 18  1  9
  -0.482889112384E-10  1 18  1 10
   0.827834435522E-11  1 18  1 11
   0.182297463553E-09  1 18  1 12
  -0.149864710539E-08  1 18  1 13
   0.200345759379E-08  1 18  1 14
   0.112096863914E-09  1 18  1 15
   0.669852779837E-10  1 18  1 16
   0.732451468392E-16  1 18  1 17
   0.143751171900E-01  1 18  1 18
   0.100568101674E-17  1 18  1 19
   0.616718058699E-16  1 18  1 20
   0.622189280761E-16  1 18  1 21
  -0.283334211518E-16  1 18  1 22
  -0.325020424495E-17  1 18  1 23
  -0.392058106148E-17  1 18  1 24
  -0.202921870359E-17  1 19  1  1
  -0.328794919223E-15  1 19  1  2
  -0.155304471746E-15  1 19  1  3
  -0.169533167794E-15  1 19  1  4
  -0.511478394896E-15  1 19  1  5
  -0.577726920598E-17  1 19  1  6
   0.440221406782E-07  1 19  1  7
  -0.356446757672E-07  1 19  1  8
  -0.483081136430E-10  1 19  1  9
   0.536589129649E-09  1 19  1 10
   0.182796051476E-09  1 19  1 11
  -0.837035581913E-11  1 19  1 12
  -0.200352182315E-08  1 19  1 13
  -0.149874170809E-08  1 19  1 14
   0.665719920636E-10  1 19  1 15
  -0.109859805274E-09  1 19  1 16
  -0.554481583247E-15  1 19  1 17
   0.101407046346E-17  1 19  1 18
   0.143751171900E-01  1 19  1 19
  -0.408027298335E-15  1 19  1 20
  -0.294058051429E-15  1 19  1 21
   0.168155321198E-15  1 19  1 22
   0.809441162341E-17  1 19  1 23
   0.326119380183E-16  1 19  1 24
   0.352587737079E-09  1 20  1  1
   0.517620970004E-04  1 20  1  2
  -0.738765821592E-05  1 20  1  3
  -0.223019044080E-02  1 20  1  4
   0.900467663994E-02  1 20  1  5
  -0.771994636570E-09  1 20  1  6
   0.233682135820E-16  1 20  1  7
  -0.255249879256E-16  1 20  1  8
  -0.538952878061E-18  1 20  1  9
   0.105879971102E-16  1 20  1 10
   0.862665543552E-16  1 20  1 11
  -0.285382477085E-16  1 20  1 12
   0.372517725282E-15  1 20  1 13
   0.375996117199E-15  1 20  1 14
  -0.665535815138E-16  1 20  1 15
   0.154243654539E-15  1 20  1 16
   0.405809685835E-08  1 20  1 17
   0.616718058704E-16  1 20  1 18
  -0.408027298337E-15  1 20  1 19
   0.225163476104E-01  1 20  1 20
   0.980935728492E-10  1 20  1 21
  -0.163948929482E-02  1 20  1 22
  -0.262653648091E-03  1 20  1 23
   0.315740433712E-09  1 20  1 24
  -0.310128172260E-09  1 21  1  1
  -0.738787320231E-05  1 21  1  2
  -0.517572527612E-04  1 21  1  3
   0.900467720349E-02  1 21  1  4
   0.223019070031E-02  1 21  1  5
   0.125382734495E-08  1 21  1  6
   0.458551320105E-16  1 21  1  7
  -0.547931450662E-16  1 21  1  8
  -0.218002973162E-16  1 21  1  9
  -0.179754835836E-15  1 21  1 10
   0.652796763918E-16  1 21  1 11
  -0.102219065575E-16  1 21  1 12
   0.226291908464E-15  1 21  1 13
   0.222775276934E-15  1 21  1 14
   0.459730745414E-16  1 21  1 15
  -0.805771011572E-16  1 21  1 16
   0.287661038212E-08  1 21  1 17
   0.622189280759E-16  1 21  1 18
  -0.294058051428E-15  1 21  1 19
   0.980935727340E-10  1 21  1 20
   0.225163492654E-01  1 21  1 21
   0.262653801111E-03  1 21  1 22
  -0.163948488327E-02  1 21  1 23
   0.135771283712E-09  1 21  1 24
  -0.673016178030E-09  1 22  1  1
  -0.957289074540E-02  1 22  1  2
  -0.176749682699E-03  1 22  1  3
   0.959828812101E-03  1 22  1  4
  -0.225971981160E-02  1 22  1  5
   0.124131136838E-09  1 22  1  6
  -0.140387862196E-16  1 22  1  7
   0.308354201736E-16  1 22  1  8
   0.832675227015E-17  1 22  1  9
   0.411306031197E-16  1 22  1 10
  -0.240103451993E-15  1 22  1 11
   0.434440398315E-16  1 22  1 12
  -0.911567570599E-16  1 22  1 13
  -0.955437183655E-16  1 22  1 14
   0.281842605238E-16  1 22  1 15
  -0.834818109792E-16  1 22  1 16
   0.180723703853E-09  1 22  1 17
  -0.283334211517E-16  1 22  1 18
   0.168155321196E-15  1 22  1 19
  -0.163948929472E-02  1 22  1 20
   0.262653801094E-03  1 22  1 21
   0.129627666817E-01  1 22  1 22
  -0.408665829770E-10  1 22  1 23
   0.121271589012E-08  1 22  1 24
   0.716704044920E-09  1 23  1  1
  -0.176749176268E-03  1 23  1  2
   0.957289123326E-02  1 23  1  3
  -0.225971868716E-02  1 23  1  4
  -0.959828837494E-03  1 23  1  5
  -0.148970136868E-09  1 23  1  6
   0.224580161504E-16  1 23  1  7
  -0.273763307764E-16  1 23  1  8
  -0.584299471174E-17  1 23  1  9
  -0.172898479438E-15  1 23  1 10
   0.216765069035E-15  1 23  1 11
  -0.464403213633E-16  1 23  1 12
  -0.536311895396E-17  1 23  1 13
   0.408039790388E-17  1 23  1 14
   0.152026805566E-16  1 23  1 15
  -0.482951902502E-16  1 23  1 16
   0.214061371790E-10  1 23  1 17
  -0.325020424462E-17  1 23  1 18
   0.809441162103E-17  1 23  1 19
  -0.262653648073E-03  1 23  1 20
  -0.163948488317E-02  1 23  1 21
  -0.408665811686E-10  1 23  1 22
   0.129627663072E-01  1 23  1 23
   0.120437875519E-08  1 23  1 24
  -0.650675923658E-07  1 24  1  1
  -0.106679676107E-08  1 24  1  2
   0.104361550200E-08  1 24  1  3
  -0.109418322282E-09  1 24  1  4
   0.982973153201E-10  1 24  1  5
  -0.580620098976E-07  1 24  1  6
   0.433649669052E-18  1 24  1  7
   0.455834249325E-18  1 24  1  8
  -0.940956799362E-19  1 24  1  9
   0.856692905580E-17  1 24  1 10
  -0.459634481547E-16  1 24  1 11
   0.118712506296E-16  1 24  1 12
  -0.433082604069E-16  1 24  1 13
  -0.459045447306E-16  1 24  1 14
   0.455521455524E-17  1 24  1 15
  -0.742253596975E-17  1 24  1 16
  -0.188163973956E-02  1 24  1 17
  -0.392058106132E-17  1 24  1 18
   0.326119380184E-16  1 24  1 19
   0.315740433566E-09  1 24  1 20
   0.135771283705E-09  1 24  1 21
   0.121271589000E-08  1 24  1 22
   0.120437875510E-08  1 24  1 23
   0.847079788308E-02  1 24  1 24
   0.339758129734      1  1  2  2
  -0.143492336873E-09  1  1  2  3
   0.123530742930E-02  1  1  2  4
  -0.306457578514E-02  1  1  2  5
   0.294377146644E-09  1  1  2  6
   0.107139962831E-15  1  1  2  7
  -0.153375664357E-15  1  1  2  8
   0.142448274351E-17  1  1  2  9
   0.916646546863E-16  1  1  2 10
   0.796130919391E-15  1  1  2 11
  -0.133844247207E-15  1  1  2 12
   0.112415838921E-15  1  1  2 13
   0.127470819207E-15  1  1  2 14
  -0.363022121804E-16  1  1  2 15
   0.125574360164E-15  1  1  2 16
  -0.890302948843E-09  1  1  2 17
   0.376314806348E-16  1  1  2 18
  -0.242952058504E-15  1  1  2 19
   0.270196856826E-02  1  1  2 20
  -0.381883780599E-03  1  1  2 21
   0.943949316344E-02  1  1  2 22
   0.174195027978E-03  1  1  2 23
   0.227521684234E-08  1  1  2 24
  -0.120634744657E-01  1  2  2  2
  -0.105846140002E-01  1  2  2  3
  -0.709117929365E-01  1  2  2  4
   0.357920227022E-01  1  2  2  5
  -0.104782058593E-01  1  2  2  6
  -0.426580698706E-15  1  2  2  7
   0.458272249515E-15  1  2  2  8
   0.319084202796E-16  1  2  2  9
   0.467760778595E-15  1  2  2 10
  -0.412472903193E-16  1  2  2 11
   0.471168498822E-16  1  2  2 12
  -0.135598976087E-15  1  2  2 13
  -0.154709959238E-15  1  2  2 14
   0.139742878744E-16  1  2  2 15
  -0.266519340034E-16  1  2  2 16
   0.231531094637E-07  1  2  2 17
  -0.625861473542E-18  1  2  2 18
  -0.438482797412E-16  1  2  2 19
   0.857069688054E-02  1  2  2 20
  -0.996693786647E-02  1  2  2 21
  -0.200142899643E-02  1  2  2 22
   0.169157727835E-02  1  2  2 23
  -0.464999039209E-07  1  2  2 24
  -0.105846092054E-01  1  3  2  2
   0.120634649661E-01  1  3  2  3
   0.357920224685E-01  1  3  2  4
   0.709117947397E-01  1  3  2  5
   0.989155846525E-08  1  3  2  6
  -0.833866202126E-15  1  3  2  7
   0.927559216275E-15  1  3  2  8
  -0.345472090962E-16  1  3  2  9
  -0.632512401820E-15  1  3  2 10
   0.211912229530E-15  1  3  2 11
  -0.400712242096E-16  1  3  2 12
   0.396459129843E-15  1  3  2 13
   0.401032588067E-15  1  3  2 14
  -0.119186769444E-15  1  3  2 15
   0.313508078831E-15  1  3  2 16
   0.215495533723E-03  1  3  2 17
   0.576056360167E-16  1  3  2 18
  -0.386145442062E-15  1  3  2 19
   0.996693667432E-02  1  3  2 20
   0.857069642932E-02  1  3  2 21
  -0.169157665560E-02  1  3  2 22
  -0.200142926953E-02  1  3  2 23
   0.166186370154E-01  1  3  2 24
  -0.327073391979E-01  1  4  2  2
   0.165087111848E-01  1  4  2  3
  -0.257542279416E-03  1  4  2  4
  -0.304922881469E-02  1  4  2  5
  -0.180830256637E-01  1  4  2  6
   0.320801373331E-16  1  4  2  7
  -0.167073090204E-16  1  4  2  8
   0.310391735939E-16  1  4  2  9
   0.219395500757E-15  1  4  2 10
   0.836905358729E-15  1  4  2 11
  -0.193041037304E-15  1  4  2 12
   0.523170732777E-15  1  4  2 13
   0.527336107193E-15  1  4  2 14
   0.275448184206E-16  1  4  2 15
  -0.752605646901E-16  1  4  2 16
   0.257174230034E-01  1  4  2 17
   0.196226192531E-16  1  4  2 18
  -0.915564049730E-16  1  4  2 19
  -0.242024244556E-02  1  4  2 20
  -0.821022293397E-03  1  4  2 21
   0.333202522358E-02  1  4  2 22
   0.175976037190E-02  1  4  2 23
  -0.246867662349E-02  1  4  2 24
   0.165087112527E-01  1  5  2  2
   0.327073392730E-01  1  5  2  3
  -0.304923434218E-02  1  5  2  4
   0.257539095224E-03  1  5  2  5
   0.448598376544E-01  1  5  2  6
  -0.896626881997E-16  1  5  2  7
   0.594343730132E-16  1  5  2  8
  -0.228839490208E-16  1  5  2  9
  -0.538711081450E-16  1  5  2 10
   0.953785678342E-15  1  5  2 11
  -0.186618396202E-15  1  5  2 12
   0.345949448475E-15  1  5  2 13
   0.352068111635E-15  1  5  2 14
  -0.545756676702E-16  1  5  2 15
   0.160898108252E-15  1  5  2 16
   0.103665864553E-01  1  5  2 17
  -0.190699592782E-16  1  5  2 18
   0.895250921404E-16  1  5  2 19
   0.821020817962E-03  1  5  2 20
  -0.242024436383E-02  1  5  2 21
  -0.175976022713E-02  1  5  2 22
   0.333202532584E-02  1  5  2 23
  -0.995204032278E-03  1  5  2 24
  -0.617295607652E-02  1  6  2  2
   0.150570416869E-08  1  6  2  3
  -0.121676965648E-01  1  6  2  4
   0.301852320538E-01  1  6  2  5
  -0.108843980694E-08  1  6  2  6
  -0.193406045575E-15  1  6  2  7
   0.190748640859E-15  1  6  2  8
  -0.121263346606E-16  1  6  2  9
  -0.866673590885E-16  1  6  2 10
  -0.741644190354E-16  1  6  2 11
   0.321513211292E-16  1  6  2 12
  -0.754689908600E-17  1  6  2 13
  -0.139457238744E-16  1  6  2 14
  -0.907261877244E-17  1  6  2 15
   0.686274340567E-16  1  6  2 16
  -0.212117915015E-09  1  6  2 17
  -0.378016492307E-16  1  6  2 18
   0.350680738043E-15  1  6  2 19
  -0.126098860163E-01  1  6  2 20
   0.178185657859E-02  1  6  2 21
  -0.290025118105E-03  1  6  2 22
  -0.536314061123E-05  1  6  2 23
   0.258742678761E-09  1  6  2 24
   0.211092927521E-16  1  7  2  2
  -0.266699732123E-15  1  7  2  3
   0.231275008891E-16  1  7  2  4
  -0.100817174883E-15  1  7  2  5
  -0.201443971168E-15  1  7  2  6
  -0.697378736935E-09  1  7  2  7
  -0.238747280414E-13  1  7  2  8
  -0.995425243585E-02  1  7  2  9
   0.102423766727E-01  1  7  2 10
   0.252909816965E-01  1  7  2 11
   0.186396422721E-01  1  7  2 12
  -0.176678023242E-03  1  7  2 13
   0.672561670032E-05  1  7  2 14
   0.173585393724E-03  1  7  2 15
  -0.634917916342E-04  1  7  2 16
  -0.223965959844E-15  1  7  2 17
   0.162613211383E-09  1  7  2 18
   0.200855876802E-09  1  7  2 19
   0.283928427640E-17  1  7  2 20
   0.243567834098E-16  1  7  2 21
  -0.266641284442E-17  1  7  2 22
   0.867598505470E-16  1  7  2 23
  -0.104038149409E-16  1  7  2 24
  -0.477193731683E-17  1  8  2  2
   0.313356593015E-15  1  8  2  3
   0.165944191279E-16  1  8  2  4
   0.482679715254E-16  1  8  2  5
   0.203614408588E-15  1  8  2  6
  -0.229052075657E-13  1  8  2  7
  -0.697288534172E-09  1  8  2  8
  -0.102631084692E-01  1  8  2  9
  -0.993614535834E-02  1  8  2 10
  -0.186490670251E-01  1  8  2 11
   0.252827482493E-01  1  8  2 12
   0.689263919127E-05  1  8  2 13
   0.176696282994E-03  1  8  2 14
   0.636329814996E-04  1  8  2 15
   0.173508523309E-03  1  8  2 16
   0.248581195147E-15  1  8  2 17
   0.200834961841E-09  1  8  2 18
  -0.162633824255E-09  1  8  2 19
  -0.830847507929E-17  1  8  2 20
  -0.240711637398E-16  1  8  2 21
  -0.341505643673E-17  1  8  2 22
  -0.970081362448E-16  1  8  2 23
   0.110088152354E-16  1  8  2 24
   0.236912668305E-16  1  9  2  2
  -0.230462908251E-16  1  9  2  3
   0.184087583973E-16  1  9  2  4
  -0.403897188659E-16  1  9  2  5
  -0.113350576776E-16  1  9  2  6
  -0.796478329095E-02  1  9  2  7
  -0.821191097868E-02  1  9  2  8
   0.357048382720E-02  1  9  2  9
  -0.212854163638E-07  1  9  2 10
   0.639066684391E-04  1  9  2 11
   0.477497643826E-03  1  9  2 12
   0.104560108439E-01  1  9  2 13
  -0.116315378587E-01  1  9  2 14
   0.714857820206E-02  1  9  2 15
   0.344703348568E-02  1  9  2 16
  -0.457710714123E-17  1  9  2 17
  -0.593010423315E-04  1  9  2 18
  -0.534277559512E-05  1  9  2 19
  -0.669417522088E-17  1  9  2 20
  -0.435757878143E-17  1  9  2 21
  -0.233499436551E-17  1  9  2 22
  -0.669836289448E-17  1  9  2 23
  -0.452444389768E-17  1  9  2 24
   0.249613395966E-15  1 10  2  2
  -0.311406729304E-15  1 10  2  3
  -0.150179350921E-15  1 10  2  4
  -0.554802503277E-15  1 10  2  5
  -0.101812419344E-15  1 10  2  6
   0.819532266285E-02  1 10  2  7
  -0.795029511933E-02  1 10  2  8
  -0.212865244161E-07  1 10  2  9
   0.357132145011E-02  1 10  2 10
  -0.471261738208E-03  1 10  2 11
   0.633904882444E-04  1 10  2 12
  -0.116325129845E-01  1 10  2 13
  -0.104546882660E-01  1 10  2 14
  -0.344426595123E-02  1 10  2 15
   0.715025960151E-02  1 10  2 16
   0.179004098912E-15  1 10  2 17
  -0.534366445118E-05  1 10  2 18
   0.593247324072E-04  1 10  2 19
  -0.263109186348E-15  1 10  2 20
  -0.145256247660E-15  1 10  2 21
  -0.732445563493E-17  1 10  2 22
  -0.475005755740E-16  1 10  2 23
  -0.173051692286E-15  1 10  2 24
  -0.316978496391E-16  1 11  2  2
   0.208658941044E-15  1 11  2  3
   0.120539039001E-15  1 11  2  4
   0.149373935384E-14  1 11  2  5
  -0.111164030118E-15  1 11  2  6
   0.202362945629E-01  1 11  2  7
  -0.149218412410E-01  1 11  2  8
   0.639065434853E-04  1 11  2  9
  -0.471260823450E-03  1 11  2 10
  -0.357131235056E-02  1 11  2 11
   0.898650156713E-07  1 11  2 12
   0.656270498725E-02  1 11  2 13
   0.446241549010E-02  1 11  2 14
  -0.862849736218E-02  1 11  2 15
   0.130449926313E-01  1 11  2 16
  -0.221405795053E-15  1 11  2 17
  -0.122145789323E-05  1 11  2 18
  -0.270016702088E-04  1 11  2 19
   0.269545260109E-15  1 11  2 20
   0.529898844359E-15  1 11  2 21
  -0.656874223404E-16  1 11  2 22
  -0.699006912874E-16  1 11  2 23
   0.183306359772E-15  1 11  2 24
   0.463346577309E-17  1 12  2  2
  -0.469545254173E-16  1 12  2  3
  -0.655002387391E-16  1 12  2  4
  -0.300362966840E-15  1 12  2  5
   0.285532893027E-16  1 12  2  6
   0.149143001248E-01  1 12  2  7
   0.202297066597E-01  1 12  2  8
   0.477496727224E-03  1 12  2  9
   0.633903664389E-04  1 12  2 10
   0.898657859271E-07  1 12  2 11
  -0.357049312676E-02  1 12  2 12
   0.446009190453E-02  1 12  2 13
  -0.656496054402E-02  1 12  2 14
  -0.130456487481E-01  1 12  2 15
  -0.862699078013E-02  1 12  2 16
   0.453417506362E-16  1 12  2 17
  -0.270530752277E-04  1 12  2 18
   0.121250702121E-05  1 12  2 19
  -0.640496276797E-16  1 12  2 20
  -0.116139032884E-15  1 12  2 21
   0.171833686645E-16  1 12  2 22
   0.157898549985E-16  1 12  2 23
  -0.411738051862E-16  1 12  2 24
   0.102429810981E-15  1 13  2  2
   0.379664300958E-15  1 13  2  3
   0.103913990459E-15  1 13  2  4
   0.310158041229E-15  1 13  2  5
   0.233759634072E-15  1 13  2  6
  -0.129889141101E-03  1 13  2  7
   0.506728280824E-05  1 13  2  8
   0.771988606376E-02  1 13  2  9