 &FCI NORB=  13,NELEC= 8,MS2=0,
  ORBSYM=0,0,0,0,0,0,0,0,0,0,0,0,0
  NPROP=   1    1    1
  PROPBITLEN=   8
  ISYM=1,
 &END
 (0.7822347286474184,-0)    1    1    1    1
 (0.2078958795012239,-0)    1    1    1    8
 (0.7563684276782604,-0)    1    1    2    2
 (0.2614043090654806,-0)    1    1    2    5
 (0.0002613501580597751,-0)    1    1    2    6
 (0.0001779068711255299,-0)    1    1    2    7
 (0.7563684276760149,-0)    1    1    3    3
 (-0.0002672237780134662,0)    1    1    3    5
 (0.2612544969183999,-0)    1    1    3    6
 (0.00885037764075867,-0)    1    1    3    7
 (0.7563684276760098,-0)    1    1    4    4
 (-0.000168956243965952,0)    1    1    4    5
 (-0.008850553035062231,0)    1    1    4    6
 (0.2612545730083597,-0)    1    1    4    7
 (0.2614043090654806,-0)    1    1    5    2
 (-0.0002672237780134662,0)    1    1    5    3
 (-0.000168956243965952,0)    1    1    5    4
 (0.473657771157071,-0)    1    1    5    5
 (0.0002613501580597751,-0)    1    1    6    2
 (0.2612544969183999,-0)    1    1    6    3
 (-0.008850553035062231,0)    1    1    6    4
 (0.4736577711583549,-0)    1    1    6    6
 (0.0001779068711255299,-0)    1    1    7    2
 (0.00885037764075867,-0)    1    1    7    3
 (0.2612545730083597,-0)    1    1    7    4
 (0.4736577711583607,-0)    1    1    7    7
 (0.2078958795012239,-0)    1    1    8    1
 (0.4648309591035047,-0)    1    1    8    8
 (0.794074846547226,-0)    1    1    9    9
 (-3.310705987773962e-08,0)    1    1    9   10
 (4.229912673895392e-07,-0)    1    1    9   11
 (2.263720431198708e-09,-0)    1    1    9   12
 (-2.841041846185055e-08,0)    1    1    9   13
 (-3.310705987773962e-08,0)    1    1   10    9
 (0.7940748945876059,-0)    1    1   10   10
 (5.071053786171012e-08,-0)    1    1   10   11
 (-3.828733246569871e-07,0)    1    1   10   12
 (-1.296493747501512e-08,0)    1    1   10   13
 (4.229912673895392e-07,-0)    1    1   11    9
 (5.071053786171012e-08,-0)    1    1   11   10
 (0.7940742694422359,-0)    1    1   11   11
 (-3.099174289497174e-08,0)    1    1   11   12
 (5.311802121601755e-08,-0)    1    1   11   13
 (2.263720431198708e-09,-0)    1    1   12    9
 (-3.828733246569871e-07,0)    1    1   12   10
 (-3.099174289497174e-08,0)    1    1   12   11
 (0.7940742100547756,-0)    1    1   12   12
 (-1.937411539521921e-08,0)    1    1   12   13
 (-2.841041846185055e-08,0)    1    1   13    9
 (-1.296493747501512e-08,0)    1    1   13   10
 (5.311802121601755e-08,-0)    1    1   13   11
 (-1.937411539521921e-08,0)    1    1   13   12
 (0.7940750661569272,-0)    1    1   13   13
 (0.2091611772694302,-0)    1    2    1    2
 (0.07020756770003994,-0)    1    2    1    5
 (7.019302390602904e-05,-0)    1    2    1    6
 (4.778195410483815e-05,-0)    1    2    1    7
 (0.2091611772694302,-0)    1    2    2    1
 (0.04485943390632809,-0)    1    2    2    8
 (-0.01085419789984422,0)    1    2    2    9
 (0.01017521166753477,-0)    1    2    2   10
 (-0.01656074248067434,0)    1    2    2   11
 (-0.0002661317680112385,0)    1    2    2   12
 (-0.1772423500768366,0)    1    2    2   13
 (0.01494272392936778,-0)    1    2    3    9
 (-0.02830631950608069,0)    1    2    3   10
 (0.08113647285575254,-0)    1    2    3   11
 (0.1273550777460747,-0)    1    2    3   12
 (-0.0103123616734922,0)    1    2    3   13
 (-0.01426541698807238,0)    1    2    4    9
 (-0.01070984389051743,0)    1    2    4   10
 (-0.1290685482136658,0)    1    2    4   11
 (0.08250891151229001,-0)    1    2    4   12
 (0.01219448216817254,-0)    1    2    4   13
 (0.07020756770003994,-0)    1    2    5    1
 (0.1179659877854098,-0)    1    2    5    8
 (-0.004099021470198655,0)    1    2    5    9
 (0.003854000810080048,-0)    1    2    5   10
 (-0.006250398464276153,0)    1    2    5   11
 (-0.0001697100740825346,0)    1    2    5   12
 (-0.06689618250052297,0)    1    2    5   13
 (7.019302390602904e-05,-0)    1    2    6    1
 (0.0001179415506327322,-0)    1    2    6    8
 (0.005815128844615704,-0)    1    2    6    9
 (-0.01053723919475887,0)    1    2    6   10
 (0.03224864287506963,-0)    1    2    6   11
 (0.04698523515962528,-0)    1    2    6   12
 (-0.004112699468289611,0)    1    2    6   13
 (4.778195410483815e-05,-0)    1    2    7    1
 (8.028543929027406e-05,-0)    1    2    7    8
 (-0.005193402347906867,0)    1    2    7    9
 (-0.004399344027693483,0)    1    2    7   10
 (-0.04765356278223437,0)    1    2    7   11
 (0.03275062139628079,-0)    1    2    7   12
 (0.004422596801450615,-0)    1    2    7   13
 (0.04485943390632809,-0)    1    2    8    2
 (0.1179659877854098,-0)    1    2    8    5
 (0.0001179415506327322,-0)    1    2    8    6
 (8.028543929027406e-05,-0)    1    2    8    7
 (-0.01085419789984422,0)    1    2    9    2
 (0.01494272392936778,-0)    1    2    9    3
 (-0.01426541698807238,0)    1    2    9    4
 (-0.004099021470198655,0)    1    2    9    5
 (0.005815128844615704,-0)    1    2    9    6
 (-0.005193402347906867,0)    1    2    9    7
 (0.01017521166753477,-0)    1    2   10    2
 (-0.02830631950608069,0)    1    2   10    3
 (-0.01070984389051743,0)    1    2   10    4
 (0.003854000810080048,-0)    1    2   10    5
 (-0.01053723919475887,0)    1    2   10    6
 (-0.004399344027693483,0)    1    2   10    7
 (-0.01656074248067434,0)    1    2   11    2
 (0.08113647285575254,-0)    1    2   11    3
 (-0.1290685482136658,0)    1    2   11    4
 (-0.006250398464276153,0)    1    2   11    5
 (0.03224864287506963,-0)    1    2   11    6
 (-0.04765356278223437,0)    1    2   11    7
 (-0.0002661317680112385,0)    1    2   12    2
 (0.1273550777460747,-0)    1    2   12    3
 (0.08250891151229001,-0)    1    2   12    4
 (-0.0001697100740825346,0)    1    2   12    5
 (0.04698523515962528,-0)    1    2   12    6
 (0.03275062139628079,-0)    1    2   12    7
 (-0.1772423500768366,0)    1    2   13    2
 (-0.0103123616734922,0)    1    2   13    3
 (0.01219448216817254,-0)    1    2   13    4
 (-0.06689618250052297,0)    1    2   13    5
 (-0.004112699468289611,0)    1    2   13    6
 (0.004422596801450615,-0)    1    2   13    7
 (0.2091611772693878,-0)    1    3    1    3
 (-7.177055172994713e-05,0)    1    3    1    5
 (0.07016733138463573,-0)    1    3    1    6
 (0.00237702082882143,-0)    1    3    1    7
 (0.01494272392937013,-0)    1    3    2    9
 (-0.02830631950608499,0)    1    3    2   10
 (0.08113647285576432,-0)    1    3    2   11
 (0.1273550777460932,-0)    1    3    2   12
 (-0.01031236167349379,0)    1    3    2   13
 (0.2091611772693878,-0)    1    3    3    1
 (0.04485943390660711,-0)    1    3    3    8
 (-0.1218089213579044,0)    1    3    3    9
 (-0.09114578394776114,0)    1    3    3   10
 (0.02161090045426741,-0)    1    3    3   11
 (-0.01242684297164643,0)    1    3    3   12
 (0.09024586039281507,-0)    1    3    3   13
 (0.08502283019953431,-0)    1    3    4    9
 (-0.1246330396646868,0)    1    3    4   10
 (-0.01755491612887704,0)    1    3    4   11
 (-0.02736027995318631,0)    1    3    4   12
 (-0.01068039633297154,0)    1    3    4   13
 (-7.177055172994713e-05,0)    1    3    5    1
 (-0.0001205921855159648,0)    1    3    5    8
 (0.005666401635067621,-0)    1    3    5    9
 (-0.01061850194089361,0)    1    3    5   10
 (0.03061904151338608,-0)    1    3    5   11
 (0.04807871869340469,-0)    1    3    5   12
 (-0.003924429906948326,0)    1    3    5   13
 (0.07016733138463573,-0)    1    3    6    1
 (0.1178983808749729,-0)    1    3    6    8
 (-0.04702897823843975,0)    1    3    6    9
 (-0.03279955051429045,0)    1    3    6   10
 (0.008406392033661496,-0)    1    3    6   11
 (-0.004289597300958833,0)    1    3    6   12
 (0.03417492253496426,-0)    1    3    6   13
 (0.00237702082882143,-0)    1    3    7    1
 (0.003993979840673807,-0)    1    3    7    8
 (0.0305191774787087,-0)    1    3    7    9
 (-0.04818549412056515,0)    1    3    7   10
 (-0.00632467912606985,0)    1    3    7   11
 (-0.01044626272761212,0)    1    3    7   12
 (-0.002878254136692041,0)    1    3    7   13
 (0.04485943390660711,-0)    1    3    8    3
 (-0.0001205921855159648,0)    1    3    8    5
 (0.1178983808749729,-0)    1    3    8    6
 (0.003993979840673807,-0)    1    3    8    7
 (0.01494272392937013,-0)    1    3    9    2
 (-0.1218089213579044,0)    1    3    9    3
 (0.08502283019953431,-0)    1    3    9    4
 (0.005666401635067621,-0)    1    3    9    5
 (-0.04702897823843975,0)    1    3    9    6
 (0.0305191774787087,-0)    1    3    9    7
 (-0.02830631950608499,0)    1    3   10    2
 (-0.09114578394776114,0)    1    3   10    3
 (-0.1246330396646868,0)    1    3   10    4
 (-0.01061850194089361,0)    1    3   10    5
 (-0.03279955051429045,0)    1    3   10    6
 (-0.04818549412056515,0)    1    3   10    7
 (0.08113647285576432,-0)    1    3   11    2
 (0.02161090045426741,-0)    1    3   11    3
 (-0.01755491612887704,0)    1    3   11    4
 (0.03061904151338608,-0)    1    3   11    5
 (0.008406392033661496,-0)    1    3   11    6
 (-0.00632467912606985,0)    1    3   11    7
 (0.1273550777460932,-0)    1    3   12    2
 (-0.01242684297164643,0)    1    3   12    3
 (-0.02736027995318631,0)    1    3   12    4
 (0.04807871869340469,-0)    1    3   12    5
 (-0.004289597300958833,0)    1    3   12    6
 (-0.01044626272761212,0)    1    3   12    7
 (-0.01031236167349379,0)    1    3   13    2
 (0.09024586039281507,-0)    1    3   13    3
 (-0.01068039633297154,0)    1    3   13    4
 (-0.003924429906948326,0)    1    3   13    5
 (0.03417492253496426,-0)    1    3   13    6
 (-0.002878254136692041,0)    1    3   13    7
 (0.2091611772693873,-0)    1    4    1    4
 (-4.537800841700613e-05,0)    1    4    1    5
 (-0.002377067935953965,0)    1    4    1    6
 (0.07016735182076128,-0)    1    4    1    7
 (-0.0142654169880744,0)    1    4    2    9
 (-0.01070984389051892,0)    1    4    2   10
 (-0.1290685482136845,0)    1    4    2   11
 (0.08250891151230219,-0)    1    4    2   12
 (0.01219448216817466,-0)    1    4    2   13
 (0.08502283019953459,-0)    1    4    3    9
 (-0.1246330396646871,0)    1    4    3   10
 (-0.01755491612887711,0)    1    4    3   11
 (-0.0273602799531865,0)    1    4    3   12
 (-0.01068039633297155,0)    1    4    3   13
 (0.2091611772693873,-0)    1    4    4    1
 (0.04485943390660531,-0)    1    4    4    8
 (0.1326631192577222,-0)    1    4    4    9
 (0.08097057228024941,-0)    1    4    4   10
 (-0.005050157973632404,0)    1    4    4   11
 (0.01269297473965695,-0)    1    4    4   12
 (0.08699648968360667,-0)    1    4    4   13
 (-4.537800841700613e-05,0)    1    4    5    1
 (-7.624621906129311e-05,0)    1    4    5    8
 (-0.005449824975587219,0)    1    4    5    9
 (-0.004014207262813688,0)    1    4    5   10
 (-0.0487060158321172,0)    1    4    5   11
 (0.03114857249025655,-0)    1    4    5   12
 (0.004585439158041312,-0)    1    4    5   13
 (-0.002377067935953965,0)    1    4    6    1
 (-0.003994058992247197,0)    1    4    6    8
 (0.0303712090420017,-0)    1    4    6    9
 (-0.04805224442449803,0)    1    4    6   10
 (-0.006605847508769165,0)    1    4    6   11
 (-0.01045124271331464,0)    1    4    6   12
 (-0.005135965541532733,0)    1    4    6   13
 (0.07016735182076128,-0)    1    4    7    1
 (0.1178984152126894,-0)    1    4    7    8
 (0.05112533378668355,-0)    1    4    7    9
 (0.028947892800047,-0)    1    4    7   10
 (-0.00216192799763244,0)    1    4    7   11
 (0.004459244374914239,-0)    1    4    7   12
 (0.03268317815816957,-0)    1    4    7   13
 (0.04485943390660531,-0)    1    4    8    4
 (-7.624621906129311e-05,0)    1    4    8    5
 (-0.003994058992247197,0)    1    4    8    6
 (0.1178984152126894,-0)    1    4    8    7
 (-0.0142654169880744,0)    1    4    9    2
 (0.08502283019953459,-0)    1    4    9    3
 (0.1326631192577222,-0)    1    4    9    4
 (-0.005449824975587219,0)    1    4    9    5
 (0.0303712090420017,-0)    1    4    9    6
 (0.05112533378668355,-0)    1    4    9    7
 (-0.01070984389051892,0)    1    4   10    2
 (-0.1246330396646871,0)    1    4   10    3
 (0.08097057228024941,-0)    1    4   10    4
 (-0.004014207262813688,0)    1    4   10    5
 (-0.04805224442449803,0)    1    4   10    6
 (0.028947892800047,-0)    1    4   10    7
 (-0.1290685482136845,0)    1    4   11    2
 (-0.01755491612887711,0)    1    4   11    3
 (-0.005050157973632404,0)    1    4   11    4
 (-0.0487060158321172,0)    1    4   11    5
 (-0.006605847508769165,0)    1    4   11    6
 (-0.00216192799763244,0)    1    4   11    7
 (0.08250891151230219,-0)    1    4   12    2
 (-0.0273602799531865,0)    1    4   12    3
 (0.01269297473965695,-0)    1    4   12    4
 (0.03114857249025655,-0)    1    4   12    5
 (-0.01045124271331464,0)    1    4   12    6
 (0.004459244374914239,-0)    1    4   12    7
 (0.01219448216817466,-0)    1    4   13    2
 (-0.01068039633297155,0)    1    4   13    3
 (0.08699648968360667,-0)    1    4   13    4
 (0.004585439158041312,-0)    1    4   13    5
 (-0.005135965541532733,0)    1    4   13    6
 (0.03268317815816957,-0)    1    4   13    7
 (0.07020756770003994,-0)    1    5    1    2
 (-7.177055172994717e-05,0)    1    5    1    3
 (-4.537800841700613e-05,0)    1    5    1    4
 (0.05052998618312993,-0)    1    5    1    5
 (0.07020756770003994,-0)    1    5    2    1
 (0.04680442210120335,-0)    1    5    2    8
 (-0.003597007434065031,0)    1    5    2    9
 (0.003381995385391733,-0)    1    5    2   10
 (-0.005484902349128698,0)    1    5    2   11
 (-0.000148924734049689,0)    1    5    2   12
 (-0.05870329806498807,0)    1    5    2   13
 (-7.177055172994717e-05,0)    1    5    3    1
 (-4.78463975850393e-05,0)    1    5    3    8
 (0.004972482704233147,-0)    1    5    3    9
 (-0.009318103990334134,0)    1    5    3   10
 (0.02686896931731733,-0)    1    5    3   11
 (0.04219027007513663,-0)    1    5    3   12
 (-0.003443795528710287,0)    1    5    3   13
 (-4.537800841700613e-05,0)    1    5    4    1
 (-3.025160292127922e-05,0)    1    5    4    8
 (-0.004782461910831507,0)    1    5    4    9
 (-0.00352264110954299,0)    1    5    4   10
 (-0.04274075168728289,0)    1    5    4   11
 (0.02733365004794782,-0)    1    5    4   12
 (0.004023839606320388,-0)    1    5    4   13
 (0.05052998618312993,-0)    1    5    5    1
 (0.01881563829808055,-0)    1    5    5    8
 (-0.002156310927421586,0)    1    5    5    9
 (0.002033364562540504,-0)    1    5    5   10
 (-0.00328613794818833,0)    1    5    5   11
 (-0.000125654713893536,0)    1    5    5   12
 (-0.03517103931540331,0)    1    5    5   13
 (0.003072244506895768,-0)    1    5    6    9
 (-0.005506032404907027,0)    1    5    6   10
 (0.01695308427172321,-0)    1    5    6   11
 (0.0247092682972769,-0)    1    5    6   12
 (-0.002178936910201333,0)    1    5    6   13
 (-0.002764139855420378,0)    1    5    7    9
 (-0.00229685064296366,0)    1    5    7   10
 (-0.02505064197472225,0)    1    5    7   11
 (0.01722337575391633,-0)    1    5    7   12
 (0.002315703755055192,-0)    1    5    7   13
 (0.04680442210120335,-0)    1    5    8    2
 (-4.78463975850393e-05,0)    1    5    8    3
 (-3.025160292127922e-05,0)    1    5    8    4
 (0.01881563829808055,-0)    1    5    8    5
 (-0.003597007434065031,0)    1    5    9    2
 (0.004972482704233147,-0)    1    5    9    3
 (-0.004782461910831507,0)    1    5    9    4
 (-0.002156310927421586,0)    1    5    9    5
 (0.003072244506895768,-0)    1    5    9    6
 (-0.002764139855420378,0)    1    5    9    7
 (0.003381995385391733,-0)    1    5   10    2
 (-0.009318103990334134,0)    1    5   10    3
 (-0.00352264110954299,0)    1    5   10    4
 (0.002033364562540504,-0)    1    5   10    5
 (-0.005506032404907027,0)    1    5   10    6
 (-0.00229685064296366,0)    1    5   10    7
 (-0.005484902349128698,0)    1    5   11    2
 (0.02686896931731733,-0)    1    5   11    3
 (-0.04274075168728289,0)    1    5   11    4
 (-0.00328613794818833,0)    1    5   11    5
 (0.01695308427172321,-0)    1    5   11    6
 (-0.02505064197472225,0)    1    5   11    7
 (-0.000148924734049689,0)    1    5   12    2
 (0.04219027007513663,-0)    1    5   12    3
 (0.02733365004794782,-0)    1    5   12    4
 (-0.000125654713893536,0)    1    5   12    5
 (0.0247092682972769,-0)    1    5   12    6
 (0.01722337575391633,-0)    1    5   12    7
 (-0.05870329806498807,0)    1    5   13    2
 (-0.003443795528710287,0)    1    5   13    3
 (0.004023839606320388,-0)    1    5   13    4
 (-0.03517103931540331,0)    1    5   13    5
 (-0.002178936910201333,0)    1    5   13    6
 (0.002315703755055192,-0)    1    5   13    7
 (7.019302390602887e-05,-0)    1    6    1    2
 (0.07016733138463574,-0)    1    6    1    3
 (-0.002377067935953965,0)    1    6    1    4
 (0.05052998618411405,-0)    1    6    1    6
 (7.019302390602887e-05,-0)    1    6    2    1
 (4.679472636726523e-05,-0)    1    6    2    8
 (0.005102997968553607,-0)    1    6    2    9
 (-0.009246791470222525,0)    1    6    2   10
 (0.02829898534803538,-0)    1    6    2   11
 (0.04123071108781536,-0)    1    6    2   12
 (-0.003609006951251086,0)    1    6    2   13
 (0.07016733138463574,-0)    1    6    3    1
 (0.04677759824831501,-0)    1    6    3    8
 (-0.04126919963935659,0)    1    6    3    9
 (-0.02878249638643182,0)    1    6    3   10
 (0.007376730379817633,-0)    1    6    3   11
 (-0.003764175656160813,0)    1    6    3   12
 (0.02998947369835851,-0)    1    6    3   13
 (-0.002377067935953965,0)    1    6    4    1
 (-0.00158469086286722,0)    1    6    4    8
 (0.02665156260180371,-0)    1    6    4    9
 (-0.04216715814882313,0)    1    6    4   10
 (-0.005796748563043379,0)    1    6    4   11
 (-0.009171138547218512,0)    1    6    4   12
 (-0.004506957113018919,0)    1    6    4   13
 (0.003072244506898171,-0)    1    6    5    9
 (-0.005506032404911335,0)    1    6    5   10
 (0.0169530842717363,-0)    1    6    5   11
 (0.02470926829729598,-0)    1    6    5   12
 (-0.002178936910203002,0)    1    6    5   13
 (0.05052998618411405,-0)    1    6    6    1
 (0.01881563829961174,-0)    1    6    6    8
 (-0.02524965595796575,0)    1    6    6    9
 (-0.01638514920081811,0)    1    6    6   10
 (0.004551985760889645,-0)    1    6    6   11
 (-0.002043385381731468,0)    1    6    6   12
 (0.01804688746572307,-0)    1    6    6   13
 (0.015123916694191,-0)    1    6    7    9
 (-0.02583737208076458,0)    1    6    7   10
 (-0.003310055713432446,0)    1    6    7   11
 (-0.005551492038929088,0)    1    6    7   12
 (-0.00209188612098001,0)    1    6    7   13
 (4.679472636726523e-05,-0)    1    6    8    2
 (0.04677759824831501,-0)    1    6    8    3
 (-0.00158469086286722,0)    1    6    8    4
 (0.01881563829961174,-0)    1    6    8    6
 (0.005102997968553607,-0)    1    6    9    2
 (-0.04126919963935659,0)    1    6    9    3
 (0.02665156260180371,-0)    1    6    9    4
 (0.003072244506898171,-0)    1    6    9    5
 (-0.02524965595796575,0)    1    6    9    6
 (0.015123916694191,-0)    1    6    9    7
 (-0.009246791470222525,0)    1    6   10    2
 (-0.02878249638643182,0)    1    6   10    3
 (-0.04216715814882313,0)    1    6   10    4
 (-0.005506032404911335,0)    1    6   10    5
 (-0.01638514920081811,0)    1    6   10    6
 (-0.02583737208076458,0)    1    6   10    7
 (0.02829898534803538,-0)    1    6   11    2
 (0.007376730379817633,-0)    1    6   11    3
 (-0.005796748563043379,0)    1    6   11    4
 (0.0169530842717363,-0)    1    6   11    5
 (0.004551985760889645,-0)    1    6   11    6
 (-0.003310055713432446,0)    1    6   11    7
 (0.04123071108781536,-0)    1    6   12    2
 (-0.003764175656160813,0)    1    6   12    3
 (-0.009171138547218512,0)    1    6   12    4
 (0.02470926829729598,-0)    1    6   12    5
 (-0.002043385381731468,0)    1    6   12    6
 (-0.005551492038929088,0)    1    6   12    7
 (-0.003609006951251086,0)    1    6   13    2
 (0.02998947369835851,-0)    1    6   13    3
 (-0.004506957113018919,0)    1    6   13    4
 (-0.002178936910203002,0)    1    6   13    5
 (0.01804688746572307,-0)    1    6   13    6
 (-0.00209188612098001,0)    1    6   13    7
 (4.778195410483815e-05,-0)    1    7    1    2
 (0.002377020828821429,-0)    1    7    1    3
 (0.07016735182076128,-0)    1    7    1    4
 (0.05052998618411565,-0)    1    7    1    7
 (4.778195410483815e-05,-0)    1    7    2    1
 (3.185421204512888e-05,-0)    1    7    2    8
 (-0.004557441961796299,0)    1    7    2    9
 (-0.003860611765710726,0)    1    7    2   10
 (-0.04181719788779548,0)    1    7    2   11
 (0.02873948781512196,-0)    1    7    2   12
 (0.003880940921623039,-0)    1    7    2   13
 (0.002377020828821429,-0)    1    7    3    1
 (0.001584659458530097,-0)    1    7    3    8
 (0.02678140921927914,-0)    1    7    3    9
 (-0.04228408853060586,0)    1    7    3   10
 (-0.005550015550333342,0)    1    7    3   11
 (-0.009166768492425474,0)    1    7    3   12
 (-0.002525751285810361,0)    1    7    3   13
 (0.07016735182076128,-0)    1    7    4    1
 (0.04677761187221639,-0)    1    7    4    8
 (0.04486386764722701,-0)    1    7    4    9
 (0.02540255713363846,-0)    1    7    4   10
 (-0.001897035652181141,0)    1    7    4   11
 (0.003913045106135014,-0)    1    7    4   12
 (0.0286804064997453,-0)    1    7    4   13
 (-0.002764139855422489,0)    1    7    5    9
 (-0.002296850642965435,0)    1    7    5   10
 (-0.02505064197474171,0)    1    7    5   11
 (0.01722337575392971,-0)    1    7    5   12
 (0.002315703755057073,-0)    1    7    5   13
 (0.01512391669419104,-0)    1    7    6    9
 (-0.02583737208076468,0)    1    7    6   10
 (-0.003310055713432492,0)    1    7    6   11
 (-0.005551492038929132,0)    1    7    6   12
 (-0.002091886120980012,0)    1    7    6   13
 (0.05052998618411565,-0)    1    7    7    1
 (0.01881563829961334,-0)    1    7    7    8
 (0.02740596688541557,-0)    1    7    7    9
 (0.01435178463825237,-0)    1    7    7   10
 (-0.001265847812659846,0)    1    7    7   11
 (0.002169040095625966,-0)    1    7    7   12
 (0.017124151850125,-0)    1    7    7   13
 (3.185421204512888e-05,-0)    1    7    8    2
 (0.001584659458530097,-0)    1    7    8    3
 (0.04677761187221639,-0)    1    7    8    4
 (0.01881563829961334,-0)    1    7    8    7
 (-0.004557441961796299,0)    1    7    9    2
 (0.02678140921927914,-0)    1    7    9    3
 (0.04486386764722701,-0)    1    7    9    4
 (-0.002764139855422489,0)    1    7    9    5
 (0.01512391669419104,-0)    1    7    9    6
 (0.02740596688541557,-0)    1    7    9    7
 (-0.003860611765710726,0)    1    7   10    2
 (-0.04228408853060586,0)    1    7   10    3
 (0.02540255713363846,-0)    1    7   10    4
 (-0.002296850642965435,0)    1    7   10    5
 (-0.02583737208076468,0)    1    7   10    6
 (0.01435178463825237,-0)    1    7   10    7
 (-0.04181719788779548,0)    1    7   11    2
 (-0.005550015550333342,0)    1    7   11    3
 (-0.001897035652181141,0)    1    7   11    4
 (-0.02505064197474171,0)    1    7   11    5
 (-0.003310055713432492,0)    1    7   11    6
 (-0.001265847812659846,0)    1    7   11    7
 (0.02873948781512196,-0)    1    7   12    2
 (-0.009166768492425474,0)    1    7   12    3
 (0.003913045106135014,-0)    1    7   12    4
 (0.01722337575392971,-0)    1    7   12    5
 (-0.005551492038929132,0)    1    7   12    6
 (0.002169040095625966,-0)    1    7   12    7
 (0.003880940921623039,-0)    1    7   13    2
 (-0.002525751285810361,0)    1    7   13    3
 (0.0286804064997453,-0)    1    7   13    4
 (0.002315703755057073,-0)    1    7   13    5
 (-0.002091886120980012,0)    1    7   13    6
 (0.017124151850125,-0)    1    7   13    7
 (0.2078958795012239,-0)    1    8    1    1
 (0.09994168497703658,-0)    1    8    1    8
 (0.2017084940184807,-0)    1    8    2    2
 (0.1204460134314119,-0)    1    8    2    5
 (0.0001204210625316348,-0)    1    8    2    6
 (8.197329824439814e-05,-0)    1    8    2    7
 (0.2017084940167853,-0)    1    8    3    3
 (-0.0001231274223084429,0)    1    8    3    5
 (0.1203769852040078,-0)    1    8    3    6
 (0.004077946182278492,-0)    1    8    3    7
 (0.2017084940167831,-0)    1    8    4    4
 (-7.7849160568203e-05,0)    1    8    4    5
 (-0.004078026997873076,0)    1    8    4    6
 (0.1203770202636145,-0)    1    8    4    7
 (0.1204460134314119,-0)    1    8    5    2
 (-0.0001231274223084429,0)    1    8    5    3
 (-7.7849160568203e-05,0)    1    8    5    4
 (0.1028836340835708,-0)    1    8    5    5
 (0.0001204210625316348,-0)    1    8    6    2
 (0.1203769852040078,-0)    1    8    6    3
 (-0.004078026997873076,0)    1    8    6    4
 (0.1028836340834169,-0)    1    8    6    6
 (8.197329824439814e-05,-0)    1    8    7    2
 (0.004077946182278492,-0)    1    8    7    3
 (0.1203770202636145,-0)    1    8    7    4
 (0.1028836340834192,-0)    1    8    7    7
 (0.09994168497703658,-0)    1    8    8    1
 (0.08561322978517372,-0)    1    8    8    8
 (0.2036478769517771,-0)    1    8    9    9
 (0.203647876951777,-0)    1    8   10   10
 (0.2036478769517814,-0)    1    8   11   11
 (0.2036478769517814,-0)    1    8   12   12
 (0.2036478769517827,-0)    1    8   13   13
 (0.1057496459870903,-0)    1    9    1    9
 (-9.946162090640378e-08,0)    1    9    1   10
 (1.270768167225812e-06,-0)    1    9    1   11
 (6.800763847306535e-09,-0)    1    9    1   12
 (-8.53517753021351e-08,0)    1    9    1   13
 (-0.004957166424131335,0)    1    9    2    2
 (0.006825403807470697,-0)    1    9    2    3
 (-0.00651663965371635,0)    1    9    2    4
 (-0.00163507107261214,0)    1    9    2    5
 (0.00231861481408297,-0)    1    9    2    6
 (-0.002070151691361437,0)    1    9    2    7
 (0.006825403807470697,-0)    1    9    3    2
 (-0.0556296715638505,0)    1    9    3    3
 (0.0388297128977783,-0)    1    9    3    4
 (0.00225933923929379,-0)    1    9    3    5
 (-0.0187605833327699,0)    1    9    3    6
 (0.01217446538899352,-0)    1    9    3    7
 (-0.00651663965371635,0)    1    9    4    2
 (0.0388297128977783,-0)    1    9    4    3
 (0.060586837987972,-0)    1    9    4    4
 (-0.002172405180301383,0)    1    9    4    5
 (0.01211544394984601,-0)    1    9    4    6
 (0.02039459106005746,-0)    1    9    4    7
 (-0.00163507107261214,0)    1    9    5    2
 (0.00225933923929379,-0)    1    9    5    3
 (-0.002172405180301383,0)    1    9    5    4
 (-0.00234804931970412,0)    1    9    5    5
 (0.003347857487310145,-0)    1    9    5    6
 (-0.003013475920098198,0)    1    9    5    7
 (0.00231861481408297,-0)    1    9    6    2
 (-0.0187605833327699,0)    1    9    6    3
 (0.01211544394984601,-0)    1    9    6    4
 (0.003347857487310145,-0)    1    9    6    5
 (-0.02749223794200269,0)    1    9    6    6
 (0.01646740656962438,-0)    1    9    6    7
 (-0.002070151691361437,0)    1    9    7    2
 (0.01217446538899352,-0)    1    9    7    3
 (0.02039459106005746,-0)    1    9    7    4
 (-0.003013475920098198,0)    1    9    7    5
 (0.01646740656962438,-0)    1    9    7    6
 (0.02984028726171921,-0)    1    9    7    7
 (0.03363096997857802,-0)    1    9    8    9
 (1.784870154004578e-08,-0)    1    9    8   10
 (-2.280433556489984e-07,0)    1    9    8   11
 (-1.220418436583904e-09,0)    1    9    8   12
 (1.531664561022351e-08,-0)    1    9    8   13
 (0.1057496459870903,-0)    1    9    9    1
 (0.03363096997857802,-0)    1    9    9    8
 (0.0110013638581797,-0)    1    9    9    9
 (0.0002552306043189068,-0)    1    9    9   10
 (-0.001319572972157541,0)    1    9    9   11
 (-0.01532591757665518,0)    1    9    9   12
 (0.07121350374316635,-0)    1    9    9   13
 (-9.946162090640378e-08,0)    1    9   10    1
 (1.784870154004578e-08,-0)    1    9   10    8
 (0.0002552306043189068,-0)    1    9   10    9
 (0.004063458252063034,-0)    1    9   10   10
 (0.02077430119038163,-0)    1    9   10   11
 (-0.001304352149760232,0)    1    9   10   12
 (5.018221533145439e-05,-0)    1    9   10   13
 (1.270768167225812e-06,-0)    1    9   11    1
 (-2.280433556489984e-07,0)    1    9   11    8
 (-0.001319572972157541,0)    1    9   11    9
 (0.02077430119038163,-0)    1    9   11   10
 (-0.01183061150031784,0)    1    9   11   11
 (-0.05805666751874296,0)    1    9   11   12
 (-0.01258407092299917,0)    1    9   11   13
 (6.800763847306535e-09,-0)    1    9   12    1
 (-1.220418436583904e-09,0)    1    9   12    8
 (-0.01532591757665518,0)    1    9   12    9
 (-0.001304352149760232,0)    1    9   12   10
 (-0.05805666751874296,0)    1    9   12   11
 (0.007379690857137525,-0)    1    9   12   12
 (0.002884644618452435,-0)    1    9   12   13
 (-8.53517753021351e-08,0)    1    9   13    1
 (1.531664561022351e-08,-0)    1    9   13    8
 (0.07121350374316635,-0)    1    9   13    9
 (5.018221533145439e-05,-0)    1    9   13   10
 (-0.01258407092299917,0)    1    9   13   11
 (0.002884644618452435,-0)    1    9   13   12
 (-0.01061390146705871,0)    1    9   13   13
 (-9.946162090656641e-08,0)    1   10    1    9
 (0.1057497903120219,-0)    1   10    1   10
 (1.523467321634425e-07,-0)    1   10    1   11
 (-1.150244154285129e-06,0)    1   10    1   12
 (-3.894981131746214e-08,0)    1   10    1   13
 (0.004647077438623936,-0)    1   10    2    2
 (-0.0129288570492585,0)    1   10    2    3
 (-0.00489232900783838,0)    1   10    2    4
 (0.001537325031513202,-0)    1   10    2    5
 (-0.004202094380527125,0)    1   10    2    6
 (-0.001753780272891393,0)    1   10    2    7
 (-0.0129288570492585,0)    1   10    3    2
 (-0.0416260184599964,0)    1   10    3    3
 (-0.05691970364090696,0)    1   10    3    4
 (-0.00423447213215432,0)    1   10    3    5
 (-0.01308417267963748,0)    1   10    3    6
 (-0.0192216765080047,0)    1   10    3    7
 (-0.00489232900783838,0)    1   10    4    2
 (-0.05691970364090696,0)    1   10    4    3
 (0.03697894102138182,-0)    1   10    4    4
 (-0.001600190648463217,0)    1   10    4    5