 &FCI NORB=23,NELEC= 10,MS2=  0
  ORBSYM=1,1,7,8,6,1,7,8,6,2,1,4,3,1,7,8,6,1,2,1,4,3,1,
  ISYM=1 UHF=.FALSE.
  SYML=0,0,1,1,1,0,1,1,1,2,2,2,2,2,1,1,1,0,2,2,2,2,2,
  SYMLZ=0,0,-1,1,0,0,-1,1,0,-2,2,-1,1,0,-1,1,0,0,-2,2,-1,1,0,
 &END
      5.9719942029485  1  1  1  1
    -0.61657966155779  1  2  1  1
     0.16729923852398  1  6  1  1
     -0.5367179527219  1 18  1  1
    -0.61657966155779  1  1  1  2
     0.10336763360817  1  2  1  2
   -0.028446482797011  1  6  1  2
    0.090687112020721  1 18  1  2
    0.048126329146935  1  3  1  3
    0.012101540393199  1  7  1  3
    0.052694171265099  1 15  1  3
    0.048126329150707  1  4  1  4
    0.012101540395295  1  8  1  4
    0.052694171265074  1 16  1  4
    0.048126329165986  1  5  1  5
    0.012101540403719  1  9  1  5
    0.052694171264998  1 17  1  5
     0.16729923852398  1  1  1  6
   -0.028446482797012  1  2  1  6
   0.0078352971700655  1  6  1  6
   -0.024934153362557  1 18  1  6
    0.012101540393199  1  3  1  7
   0.0030430015629085  1  7  1  7
    0.013251033132135  1 15  1  7
    0.012101540395295  1  4  1  8
    0.003043001563724  1  8  1  8
    0.013251033133406  1 16  1  8
    0.012101540403719  1  5  1  9
    0.003043001566995  1  9  1  9
    0.013251033138487  1 17  1  9
  4.8838711362393e-05  1 10  1 10
 -0.00036983754460806  1 19  1 10
  4.8838711362393e-05  1 11  1 11
 -0.00036983754460806  1 20  1 11
  4.8838711379088e-05  1 12  1 12
 -0.00036983754467384  1 21  1 12
  4.8838711383247e-05  1 13  1 13
 -0.00036983754469023  1 22  1 13
  4.8838711387426e-05  1 14  1 14
 -0.00036983754470669  1 23  1 14
    0.052694171265099  1  3  1 15
    0.013251033132135  1  7  1 15
    0.057935924157054  1 15  1 15
    0.052694171265074  1  4  1 16
    0.013251033133406  1  8  1 16
    0.057935924152467  1 16  1 16
    0.052694171264998  1  5  1 17
    0.013251033138487  1  9  1 17
    0.057935924133939  1 17  1 17
    -0.53671795272189  1  1  1 18
     0.09068711202072  1  2  1 18
   -0.024934153362556  1  6  1 18
    0.079949380971108  1 18  1 18
 -0.00036983754460806  1 10  1 19
   0.0029615667238011  1 19  1 19
 -0.00036983754460806  1 11  1 20
   0.0029615667238011  1 20  1 20
 -0.00036983754467384  1 12  1 21
   0.0029615667237867  1 21  1 21
 -0.00036983754469023  1 13  1 22
   0.0029615667237825  1 22  1 22
 -0.00036983754470669  1 14  1 23
   0.0029615667237791  1 23  1 23
     -0.6165796615578  2  1  1  1
      1.4563762664388  2  2  1  1
    -0.22890254729114  2  6  1  1
     0.54770154653701  2 18  1  1
     0.10336763360817  2  1  1  2
   -0.028856218531819  2  2  1  2
   0.0080134519322527  2  6  1  2
   -0.025721038085838  2 18  1  2
    0.048837974465314  2  3  1  3
    0.010732899826958  2  7  1  3
    0.025912755721244  2 15  1  3
    0.048837974468372  2  4  1  4
    0.010732899826459  2  8  1  4
    0.025912755720238  2 16  1  4
    0.048837974479401  2  5  1  5
    0.010732899824361  2  9  1  5
    0.025912755716399  2 17  1  5
   -0.028446482797012  2  1  1  6
   0.0074390562616116  2  2  1  6
  -0.0020937106503229  2  6  1  6
   0.0067431386793291  2 18  1  6
    0.012237185001426  2  3  1  7
   0.0026930738502541  2  7  1  7
   0.0065170050320844  2 15  1  7
    0.012237185002922  2  4  1  8
   0.0026930738502975  2  8  1  8
   0.0065170050322843  2 16  1  8
    0.012237185008592  2  5  1  9
   0.0026930738504438  2  9  1  9
   0.0065170050331241  2 17  1  9
  0.00059314587441294  2 10  1 10
  -0.0016272192298377  2 19  1 10
  0.00059314587441294  2 11  1 11
  -0.0016272192298377  2 20  1 11
  0.00059314587449573  2 12  1 12
    -0.00162721923003  2 21  1 12
  0.00059314587452244  2 13  1 13
  -0.0016272192300837  2 22  1 13
  0.00059314587454113  2 14  1 14
  -0.0016272192301299  2 23  1 14
     0.04844713067974  2  3  1 15
    0.010720284332272  2  7  1 15
    0.026466715393967  2 15  1 15
    0.048447130678878  2  4  1 16
    0.010720284330984  2  8  1 16
    0.026466715390865  2 16  1 16
    0.048447130674088  2  5  1 17
    0.010720284325692  2  9  1 17
    0.026466715378513  2 17  1 17
     0.09068711202072  2  1  1 18
   -0.023000094322196  2  2  1 18
    0.006398876672091  2  6  1 18
   -0.020563442272488  2 18  1 18
  -0.0031214638775856  2 10  1 19
    0.010131488447262  2 19  1 19
  -0.0031214638775856  2 11  1 20
    0.010131488447262  2 20  1 20
  -0.0031214638776853  2 12  1 21
    0.010131488447023  2 21  1 21
  -0.0031214638777389  2 13  1 22
    0.010131488446996  2 22  1 22
  -0.0031214638777543  2 14  1 23
    0.010131488446925  2 23  1 23
     0.10336763360817  2  1  2  1
   -0.028856218531819  2  2  2  1
   0.0080134519322527  2  6  2  1
   -0.025721038085838  2 18  2  1
   -0.028856218531818  2  1  2  2
      1.0212484064857  2  2  2  2
     -0.1149122855761  2  6  2  2
     0.19790877333561  2 18  2  2
     0.19888360621088  2  3  2  3
     0.03643690314951  2  7  2  3
    0.048003701730079  2 15  2  3
     0.19888360621774  2  4  2  4
    0.036436903141403  2  8  2  4
    0.048003701724626  2 16  2  4
      0.1988836062282  2  5  2  5
    0.036436903107759  2  9  2  5
    0.048003701706954  2 17  2  5
   0.0080134519322526  2  1  2  6
     -0.1149122855761  2  2  2  6
    0.023650779755821  2  6  2  6
   -0.048156963915228  2 18  2  6
     0.03643690314951  2  3  2  7
   0.0082749740373324  2  7  2  7
    0.014984020298053  2 15  2  7
    0.036436903141403  2  4  2  8
   0.0082749740351886  2  8  2  8
    0.014984020297588  2 16  2  8
    0.036436903107759  2  5  2  9
   0.0082749740261499  2  9  2  9
    0.014984020295175  2 17  2  9
    0.033616775573608  2 10  2 10
   -0.036517202720432  2 19  2 10
    0.033616775573608  2 11  2 11
   -0.036517202720432  2 20  2 11
    0.033616775570337  2 12  2 12
   -0.036517202719596  2 21  2 12
    0.033616775570748  2 13  2 13
   -0.036517202719894  2 22  2 13
    0.033616775569521  2 14  2 14
   -0.036517202719516  2 23  2 14
    0.048003701730079  2  3  2 15
    0.014984020298053  2  7  2 15
    0.046292321381993  2 15  2 15
    0.048003701724626  2  4  2 16
    0.014984020297588  2  8  2 16
    0.046292321377276  2 16  2 16
    0.048003701706954  2  5  2 17
    0.014984020295175  2  9  2 17
    0.046292321354403  2 17  2 17
   -0.025721038085836  2  1  2 18
     0.19790877333561  2  2  2 18
   -0.048156963915228  2  6  2 18
     0.12196680734516  2 18  2 18
   -0.036517202720432  2 10  2 19
    0.086664460904508  2 19  2 19
   -0.036517202720432  2 11  2 20
    0.086664460904508  2 20  2 20
   -0.036517202719596  2 12  2 21
    0.086664460899532  2 21  2 21
   -0.036517202719894  2 13  2 22
    0.086664460899122  2 22  2 22
   -0.036517202719516  2 14  2 23
      0.0866644608976  2 23  2 23
      1.4130828135601  3  3  1  1
     0.23470401085291  3  7  1  1
     0.61983367348069  3 15  1  1
   -0.019964420915299  3  3  1  2
   -0.005020870147147  3  7  1  2
   -0.021567310060261  3 15  1  2
    0.048126329146935  3  1  1  3
    0.048837974465314  3  2  1  3
  -0.0094437075175472  3  6  1  3
    0.012922434821389  3 11  1  3
   0.0074607712178841  3 14  1  3
    0.025424831798871  3 18  1  3
   -0.034548833993481  3 20  1  3
   -0.019946778605378  3 23  1  3
   -0.012922434821859  3 10  1  4
    0.034548833994766  3 19  1  4
   -0.012922434824546  3 12  1  5
     0.03454883399969  3 21  1  5
   0.0048604748686472  3  3  1  6
   0.0012361819362498  3  7  1  6
   0.0054388868159245  3 15  1  6
    0.012101540393199  3  1  1  7
    0.012237185001426  3  2  1  7
  -0.0023759287823577  3  6  1  7
    0.003224868460159  3 11  1  7
   0.0018618786723607  3 14  1  7
   0.0063986742832426  3 18  1  7
  -0.0086614268120458  3 20  1  7
  -0.0050006771012634  3 23  1  7
  -0.0032248684604383  3 10  1  8
   0.0086614268129023  3 19  1  8
  -0.0032248684617547  3 12  1  9
   0.0086614268162679  3 21  1  9
  -0.0013628962682066  3  4  1 10
 -0.00030314281974322  3  8  1 10
 -0.00077029494242775  3 16  1 10
   0.0013628962681705  3  3  1 11
  0.00030314281976394  3  7  1 11
  0.00077029494248342  3 15  1 11
  -0.0013628962685589  3  5  1 12
 -0.00030314281970789  3  9  1 12
 -0.00077029494234118  3 17  1 12
  0.00078686853042886  3  3  1 14
  0.00017501958937187  3  7  1 14
  0.00044472999573967  3 15  1 14
    0.052694171265099  3  1  1 15
     0.04844713067974  3  2  1 15
  -0.0095636242010251  3  6  1 15
    0.012457628616495  3 11  1 15
   0.0071924152302771  3 14  1 15
     0.02618561890879  3 18  1 15
   -0.034496815963802  3 20  1 15
   -0.019916745981936  3 23  1 15
   -0.012457628615935  3 10  1 16
      0.0344968159623  3 19  1 16
   -0.012457628614448  3 12  1 17
    0.034496815955961  3 21  1 17
   -0.015296333243056  3  3  1 18
   -0.003842234678258  3  7  1 18
   -0.016960014619461  3 15  1 18
   0.0091004588419252  3  4  1 19
   0.0021086941570735  3  8  1 19
   0.0061569172918081  3 16  1 19
  -0.0091004588416581  3  3  1 20
  -0.0021086941571183  3  7  1 20
  -0.0061569172921876  3 15  1 20
   0.0091004588429817  3  5  1 21
   0.0021086941568881  3  9  1 21
   0.0061569172902588  3 17  1 21
  -0.0052541523623885  3  3  1 23
  -0.0012174551393541  3  7  1 23
  -0.0035546978564781  3 15  1 23
   -0.019964420915299  3  3  2  1
   -0.005020870147147  3  7  2  1
   -0.021567310060261  3 15  2  1
     0.98897875011362  3  3  2  2
     0.12972734057648  3  7  2  2
     0.23806098466207  3 15  2  2
    0.048837974465314  3  1  2  3
     0.19888360621088  3  2  2  3
   -0.020161192456275  3  6  2  3
     0.08310143539322  3 11  2  3
    0.047978636083727  3 14  2  3
    0.034173844406427  3 18  2  3
    -0.12731891953403  3 20  2  3
   -0.073507612463413  3 23  2  3
   -0.083101435393943  3 10  2  4
      0.1273189195367  3 19  2  4
   -0.083101435395148  3 12  2  5
     0.12731891954128  3 21  2  5
    -0.10917195283653  3  3  2  6
   -0.024166121752317  3  7  2  6
   -0.055664045119785  3 15  2  6
    0.010732899826958  3  1  2  7
     0.03643690314951  3  2  2  7
  -0.0076578241565027  3  6  2  7
    0.011047412203493  3 11  2  7
   0.0063782264071539  3 14  2  7
    0.012837019076273  3 18  2  7
   -0.026573465144998  3 20  2  7
   -0.015342197254205  3 23  2  7
   -0.011047412197798  3 10  2  8
    0.026573465140431  3 19  2  8
   -0.011047412176004  3 12  2  9
    0.026573465121509  3 21  2  9
    -0.03428904994764  3  4  2 10
  -0.0035566985547458  3  8  2 10
    0.003706882871996  3 16  2 10
    0.034289049947475  3  3  2 11
   0.0035566985573982  3  7  2 11
  -0.0037068828709711  3 15  2 11
   -0.034289049947632  3  5  2 12
  -0.0035566985443894  3  9  2 12
   0.0037068828748077  3 17  2 12
    0.019796792184309  3  3  2 14
   0.0020534608616144  3  7  2 14
   -0.002140169846701  3 15  2 14
    0.025912755721244  3  1  2 15
    0.048003701730079  3  2  2 15
   -0.020031002131694  3  6  2 15
  -0.0010420751234849  3 11  2 15
 -0.00060164236005354  3 14  2 15
    0.048299862556868  3 18  2 15
   -0.043461661488108  3 20  2 15
    -0.02509260195831  3 23  2 15
   0.0010420751261929  3 10  2 16
    0.043461661483069  3 19  2 16
   0.0010420751326998  3 12  2 17
     0.04346166146404  3 21  2 17
     0.19176925038301  3  3  2 18
    0.046543809657239  3  7  2 18
     0.13419871558839  3 15  2 18
    0.061336823384191  3  4  2 19
     0.01334983377579  3  8  2 19
    0.023105404653872  3 16  2 19
   -0.061336823382822  3  3  2 20
    -0.01334983377779  3  7  2 20
   -0.023105404656351  3 15  2 20
    0.061336823388009  3  5  2 21
    0.013349833767378  3  9  2 21
    0.023105404643406  3 17  2 21
   -0.035412831491768  3  3  2 23
  -0.0077075301252687  3  7  2 23
   -0.013339911597514  3 15  2 23
    0.048126329146935  3  1  3  1
    0.048837974465314  3  2  3  1
  -0.0094437075175472  3  6  3  1
    0.012922434821389  3 11  3  1
   0.0074607712178841  3 14  3  1
    0.025424831798871  3 18  3  1
   -0.034548833993481  3 20  3  1
   -0.019946778605378  3 23  3  1
    0.048837974465314  3  1  3  2
     0.19888360621088  3  2  3  2
   -0.020161192456275  3  6  3  2
     0.08310143539322  3 11  3  2
    0.047978636083727  3 14  3  2
    0.034173844406427  3 18  3  2
    -0.12731891953403  3 20  3  2
   -0.073507612463413  3 23  3  2
      1.0321989416708  3  3  3  3
     0.13676802927062  3  7  3  3
       0.252699346134  3 15  3  3
    0.051010344411359  3  4  3  4
   0.0089581676086847  3  8  3  4
    0.013944656306351  3 16  3  4
    0.051010344418509  3  5  3  5
   0.0089581676013134  3  9  3  5
    0.013944656302034  3 17  3  5
  -0.0094437075175472  3  1  3  6
   -0.020161192456275  3  2  3  6
    0.011880817301457  3  6  3  6
   0.0018273516313617  3 11  3  6
   0.0010550219597476  3 14  3  6
   -0.019521104102841  3 18  3  6
    0.020870748961991  3 20  3  6
    0.012049732529914  3 23  3  6
     0.13676802927062  3  3  3  7
    0.029716225060413  3  7  3  7
     0.06350600969029  3 15  3  7
   0.0089581676086847  3  4  3  8
   0.0028649255235055  3  8  3  8
    0.005753385517327  3 16  3  8
   0.0089581676013135  3  5  3  9
   0.0028649255229237  3  9  3  9
   0.0057533855192107  3 17  3  9
    0.061997468132491  3 10  3 10
   -0.055158104409094  3 19  3 10
    0.012922434821389  3  1  3 11
     0.08310143539322  3  2  3 11
   0.0018273516313617  3  6  3 11
    0.061997468132491  3 11  3 11
    0.030729178885358  3 14  3 11
  -0.0096269967409869  3 18  3 11
   -0.055158104409094  3 20  3 11
   -0.027952255946456  3 23  3 11
    0.061997468134965  3 12  3 12
   -0.055158104410374  3 21  3 12
   0.0087729690241983  3 13  3 13
  -0.0067433769223371  3 22  3 13
   0.0074607712178841  3  1  3 14
    0.047978636083727  3  2  3 14
   0.0010550219597476  3  6  3 14
    0.030729178885358  3 11  3 14
    0.026514468724258  3 14  3 14
  -0.0055581491650458  3 18  3 14
   -0.027952255939793  3 20  3 14
   -0.022881619413155  3 23  3 14
       0.252699346134  3  3  3 15
     0.06350600969029  3  7  3 15
     0.18110561765552  3 15  3 15
    0.013944656306351  3  4  3 16
    0.005753385517327  3  8  3 16
     0.02013694611234  3 16  3 16
    0.013944656302034  3  5  3 17
   0.0057533855192107  3  9  3 17
    0.020136946105772  3 17  3 17
    0.025424831798871  3  1  3 18
    0.034173844406427  3  2  3 18
   -0.019521104102841  3  6  3 18
  -0.0096269967409869  3 11  3 18
  -0.0055581491650458  3 14  3 18
    0.052811171011304  3 18  3 18
   -0.035616047572979  3 20  3 18
   -0.020562934654041  3 23  3 18
   -0.055158104409094  3 10  3 19
     0.11907862041844  3 19  3 19
   -0.034548833993481  3  1  3 20
    -0.12731891953403  3  2  3 20
    0.020870748961991  3  6  3 20
   -0.055158104409094  3 11  3 20
   -0.027952255939793  3 14  3 20
   -0.035616047572979  3 18  3 20
     0.11907862041844  3 20  3 20
    0.058052215458436  3 23  3 20
   -0.055158104410374  3 12  3 21
     0.11907862041597  3 21  3 21
  -0.0067433769223371  3 13  3 22
     0.01852923374831  3 22  3 22
   -0.019946778605378  3  1  3 23
   -0.073507612463413  3  2  3 23
    0.012049732529914  3  6  3 23
   -0.027952255946456  3 11  3 23
   -0.022881619413155  3 14  3 23
   -0.020562934654041  3 18  3 23
    0.058052215458436  3 20  3 23
    0.052045695968948  3 23  3 23
      1.4130828136169  4  4  1  1
     0.23470401084351  4  8  1  1
     0.61983367346912  4 16  1  1
   -0.019964420916852  4  4  1  2
   -0.005020870147988  4  8  1  2
   -0.021567310060237  4 16  1  2
   -0.012922434821401  4 10  1  3
    0.034548833994589  4 19  1  3
    0.048126329150707  4  1  1  4
    0.048837974468372  4  2  1  4
  -0.0094437075185027  4  6  1  4
   -0.012922434821871  4 11  1  4
   0.0074607712181628  4 14  1  4
    0.025424831800991  4 18  1  4
    0.034548833995874  4 20  1  4
   -0.019946778606759  4 23  1  4
   -0.012922434824753  4 13  1  5
    0.034548834000725  4 22  1  5
   0.0048604748690347  4  4  1  6
   0.0012361819364719  4  8  1  6
   0.0054388868159234  4 16  1  6
  -0.0032248684601626  4 10  1  7
   0.0086614268123235  4 19  1  7
    0.012101540395295  4  1  1  8
    0.012237185002922  4  2  1  8
  -0.0023759287827534  4  6  1  8
  -0.0032248684604418  4 11  1  8
    0.001861878672524  4 14  1  8
   0.0063986742842374  4 18  1  8
   0.0086614268131799  4 20  1  8
  -0.0050006771019181  4 23  1  8
   -0.003224868461807  4 13  1  9
   0.0086614268165274  4 22  1  9
  -0.0013628962682066  4  3  1 10
 -0.00030314281977561  4  7  1 10
   -0.000770294942517  4 15  1 10
  -0.0013628962682427  4  4  1 11
 -0.00030314281975488  4  8  1 11
 -0.00077029494246133  4 16  1 11
  -0.0013628962686462  4  5  1 13
 -0.00030314281973142  4  9  1 13
 -0.00077029494240939  4 17  1 13
  0.00078686853047052  4  4  1 14
  0.00017501958936664  4  8  1 14
  0.00044472999572691  4 16  1 14
   -0.012457628616516  4 10  1 15
    0.034496815964913  4 19  1 15
    0.052694171265074  4  1  1 16
    0.048447130678878  4  2  1 16
   -0.009563624201204  4  6  1 16
   -0.012457628615956  4 11  1 16
   0.0071924152299655  4 14  1 16
     0.02618561890885  4 18  1 16
    0.034496815963412  4 20  1 16
   -0.019916745981711  4 23  1 16
   -0.012457628614663  4 13  1 17
    0.034496815957003  4 22  1 17
   -0.015296333244263  4  4  1 18
  -0.0038422346789455  4  8  1 18
    -0.01696001461947  4 16  1 18
   0.0091004588419252  4  3  1 19
   0.0021086941571973  4  7  1 19
    0.006156917292435  4 15  1 19
   0.0091004588421924  4  4  1 20
   0.0021086941571524  4  8  1 20
   0.0061569172920555  4 16  1 20
   0.0091004588432411  4  5  1 22
   0.0021086941569653  4  9  1 22
   0.0061569172905019  4 17  1 22
  -0.0052541523626969  4  4  1 23
  -0.0012174551393738  4  8  1 23
  -0.0035546978564019  4 16  1 23
   -0.019964420916852  4  4  2  1
   -0.005020870147988  4  8  2  1
   -0.021567310060237  4 16  2  1
     0.98897875014077  4  4  2  2
     0.12972734055669  4  8  2  2
     0.23806098465438  4 16  2  2
   -0.083101435392256  4 10  2  3
     0.12731891953821  4 19  2  3
    0.048837974468372  4  1  2  4
     0.19888360621774  4  2  2  4
   -0.020161192460797  4  6  2  4
   -0.083101435392979  4 11  2  4
    0.047978636083588  4 14  2  4
    0.034173844411892  4 18  2  4
     0.12731891954088  4 20  2  4
   -0.073507612467369  4 23  2  4
     -0.0831014353949  4 13  2  5
     0.12731891954499  4 22  2  5
    -0.10917195284205  4  4  2  6
   -0.024166121750899  4  8  2  6
   -0.055664045117901  4 16  2  6
   -0.011047412203602  4 10  2  7
    0.026573465145694  4 19  2  7
    0.010732899826459  4  1  2  8
    0.036436903141403  4  2  2  8
  -0.0076578241571302  4  6  2  8
   -0.011047412197907  4 11  2  8
   0.0063782264039285  4 14  2  8
    0.012837019079156  4 18  2  8
    0.026573465141127  4 20  2  8
    -0.01534219725197  4 23  2  8
   -0.011047412176262  4 13  2  9
    0.026573465122143  4 22  2  9
    -0.03428904994764  4  3  2 10
  -0.0035566985579888  4  7  2 10
   0.0037068828701497  4 15  2 10
   -0.034289049947804  4  4  2 11
  -0.0035566985553364  4  8  2 11
   0.0037068828711746  4 16  2 11
   -0.034289049948142  4  5  2 13
  -0.0035566985450551  4  9  2 13
   0.0037068828738564  4 17  2 13
    0.019796792184499  4  4  2 14
    0.002053460860424  4  8  2 14
  -0.0021401698468185  4 16  2 14
   0.0010420751226952  4 10  2 15
     0.04346166148905  4 19  2 15
    0.025912755720238  4  1  2 16
    0.048003701724626  4  2  2 16
   -0.020031002130101  4  6  2 16
   0.0010420751254033  4 11  2 16
 -0.00060164236116112  4 14  2 16
     0.04829986255614  4 18  2 16
    0.043461661484011  4 20  2 16
   -0.025092601955944  4 23  2 16
   0.0010420751316657  4 13  2 17
    0.043461661464988  4 22  2 17
     0.19176925039473  4  4  2 18
    0.046543809658145  4  8  2 18
     0.13419871558506  4 16  2 18
    0.061336823384191  4  3  2 19
    0.013349833778194  4  7  2 19
    0.023105404657451  4 15  2 19
    0.061336823385559  4  4  2 20
    0.013349833776194  4  8  2 20
    0.023105404654972  4 16  2 20
    0.061336823389185  4  5  2 22
    0.013349833767762  4  9  2 22
    0.023105404644527  4 17  2 22
   -0.035412831493348  4  4  2 23
  -0.0077075301243474  4  8  2 23
   -0.013339911596719  4 16  2 23
   -0.012922434821401  4 10  3  1
    0.034548833994589  4 19  3  1
   -0.083101435392256  4 10  3  2
     0.12731891953821  4 19  3  2
      0.9301782528768  4  4  3  3
     0.11885169403196  4  8  3  3
     0.22481003351254  4 16  3  3
    0.051010344411359  4  3  3  4
   0.0089581676114395  4  7  3  4
    0.013944656309382  4 15  3  4
   -0.001827351630753  4 10  3  6
   -0.020870748962239  4 19  3  6
     0.11885169405491  4  4  3  7
    0.023986374011018  4  8  3  7
    0.051999238654899  4 16  3  7
   0.0089581676086847  4  3  3  8
   0.0028649255234513  4  7  3  8
   0.0057533855179224  4 15  3  8
   -0.012922434821859  4  1  3 10
   -0.083101435393943  4  2  3 10
    -0.00182735162884  4  6  3 10
    0.035678561060191  4 11  3 10
   -0.030729178884646  4 14  3 10
   0.0096269967396196  4 18  3 10
    -0.03492797364435  4 20  3 10
    0.027952255947609  4 23  3 10
   -0.035678561060191  4 10  3 11
     0.03492797364435  4 19  3 11
    0.044451530085918  4 13  3 12
   -0.041671350567281  4 22  3 12
   0.0087729690239642  4 12  3 13
  -0.0067433769226623  4 21  3 13
   -0.030729178884646  4 10  3 14
    0.027952255940947  4 19  3 14
     0.22481003353189  4  4  3 15
    0.051999238656205  4  8  3 15
     0.14083172542394  4 16  3 15
    0.013944656306351  4  3  3 16
   0.0057533855163004  4  7  3 16
    0.020136946113396  4 15  3 16
   0.0096269967400911  4 10  3 18
    0.035616047573693  4 19  3 18
    0.034548833994766  4  1  3 19
      0.1273189195367  4  2  3 19
   -0.020870748963386  4  6  3 19
   -0.034927973642711  4 11  3 19
    0.027952255939824  4 14  3 19
     0.03561604757528  4 18  3 19
    0.063490919174312  4 20  3 19
   -0.058052215460064  4 23  3 19
    0.034927973642711  4 10  3 20
   -0.063490919174312  4 19  3 20
   -0.041671350566202  4 13  3 21
    0.082020152921339  4 22  3 21
  -0.0067433769223562  4 12  3 22
     0.01852923374879  4 21  3 22
    0.027952255946487  4 10  3 23
   -0.058052215460064  4 19  3 23
    0.048126329150707  4  1  4  1
    0.048837974468372  4  2  4  1
  -0.0094437075185027  4  6  4  1
   -0.012922434821871  4 11  4  1
   0.0074607712181628  4 14  4  1
    0.025424831800991  4 18  4  1
    0.034548833995874  4 20  4  1
   -0.019946778606759  4 23  4  1
    0.048837974468372  4  1  4  2
     0.19888360621774  4  2  4  2
   -0.020161192460797  4  6  4  2
   -0.083101435392979  4 11  4  2
    0.047978636083588  4 14  4  2
    0.034173844411892  4 18  4  2
     0.12731891954088  4 20  4  2
   -0.073507612467369  4 23  4  2
    0.051010344411359  4  3  4  3
   0.0089581676114395  4  7  4  3
    0.013944656309382  4 15  4  3
      1.0321989417282  4  4  4  4
     0.13676802925651  4  8  4  4
      0.2526993461419  4 16  4  4
    0.051010344420283  4  5  4  5
   0.0089581676022284  4  9  4  5
    0.013944656303998  4 17  4  5
  -0.0094437075185027  4  1  4  6
   -0.020161192460797  4  2  4  6
    0.011880817299539  4  6  4  6
  -0.0018273516282314  4 11  4  6
   0.0010550219579404  4 14  4  6
   -0.019521104102775  4 18  4  6
   -0.020870748963635  4 20  4  6
    0.012049732530863  4 23  4  6
   0.0089581676114395  4  3  4  7
   0.0028649255233972  4  7  4  7
   0.0057533855168958  4 15  4  7
     0.13676802925651  4  4  4  8
    0.029716225055428  4  8  4  8
    0.063506009689259  4 16  4  8
   0.0089581676022284  4  5  4  9
   0.0028649255226703  4  9  4  9
   0.0057533855192523  4 17  4  9
    0.061997468129634  4 10  4 10
   -0.055158104411545  4 19  4 10
   -0.012922434821871  4  1  4 11
   -0.083101435392979  4  2  4 11
  -0.0018273516282314  4  6  4 11
    0.061997468129633  4 11  4 11
   -0.030729178883934  4 14  4 11
   0.0096269967387238  4 18  4 11
   -0.055158104411545  4 20  4 11
     0.02795225594764  4 23  4 11
   0.0087729690237301  4 12  4 12
  -0.0067433769226813  4 21  4 12
    0.061997468132727  4 13  4 13
   -0.055158104413146  4 22  4 13
   0.0074607712181628  4  1  4 14
    0.047978636083588  4  2  4 14
   0.0010550219579404  4  6  4 14
   -0.030729178883934  4 11  4 14
    0.026514468723044  4 14  4 14
  -0.0055581491637392  4 18  4 14
    0.027952255940978  4 20  4 14
   -0.022881619414238  4 23  4 14
    0.013944656309382  4  3  4 15
   0.0057533855168958  4  7  4 15
    0.020136946114452  4 15  4 15
      0.2526993461419  4  4  4 16
    0.063506009689259  4  8  4 16
     0.18110561764595  4 16  4 16
    0.013944656303998  4  5  4 17
   0.0057533855192523  4  9  4 17
    0.020136946106255  4 17  4 17
    0.025424831800991  4  1  4 18
    0.034173844411892  4  2  4 18
   -0.019521104102775  4  6  4 18
   0.0096269967387238  4 11  4 18
  -0.0055581491637392  4 14  4 18
    0.052811171013147  4 18  4 18
    0.035616047575994  4 20  4 18
   -0.020562934655782  4 23  4 18
   -0.055158104411545  4 10  4 19
     0.11907862042496  4 19  4 19
    0.034548833995874  4  1  4 20
     0.12731891954088  4  2  4 20
   -0.020870748963635  4  6  4 20
   -0.055158104411545  4 11  4 20
    0.027952255940978  4 14  4 20
    0.035616047575994  4 18  4 20
     0.11907862042496  4 20  4 20
   -0.058052215461691  4 23  4 20
  -0.0067433769226813  4 12  4 21
    0.018529233749269  4 21  4 21
   -0.055158104413146  4 13  4 22
     0.11907862042187  4 22  4 22
   -0.019946778606759  4  1  4 23
   -0.073507612467369  4  2  4 23
    0.012049732530863  4  6  4 23
     0.02795225594764  4 11  4 23
   -0.022881619414238  4 14  4 23
   -0.020562934655782  4 18  4 23
   -0.058052215461691  4 20  4 23
    0.052045695971711  4 23  4 23
      1.4130828138464  5  5  1  1
     0.23470401080612  5  9  1  1
     0.61983367342237  5 17  1  1
   -0.019964420923277  5  5  1  2
   -0.005020870151399  5  9  1  2
   -0.021567310060234  5 17  1  2
   -0.012922434822223  5 12  1  3
    0.034548833998778  5 21  1  3
   -0.012922434822887  5 13  1  4
    0.034548833999989  5 22  1  4
    0.048126329165986  5  1  1  5
    0.048837974479401  5  2  1  5
  -0.0094437075252828  5  6  1  5
   -0.014921542455092  5 14  1  5
    0.025424831804625  5 18  1  5
    0.039893557226795  5 23  1  5
   0.0048604748705673  5  5  1  6
   0.0012361819373609  5  9  1  6
    0.005438886815952  5 17  1  6
  -0.0032248684603707  5 12  1  7
   0.0086614268133733  5 21  1  7
  -0.0032248684606987  5 13  1  8
   0.0086614268142116  5 22  1  8
    0.012101540403719  5  1  1  9
    0.012237185008592  5  2  1  9
  -0.0023759287850704  5  6  1  9
  -0.0037237573505043  5 14  1  9
   0.0063986742870016  5 18  1  9
    0.010001354209626  5 23  1  9
  -0.0013628962685589  5  3  1 12
 -0.00030314281987052  5  7  1 12
 -0.00077029494279133  5 15  1 12
  -0.0013628962686462  5  4  1 13
 -0.00030314281986166  5  8  1 13
 -0.00077029494277029  5 16  1 13
  -0.0015737370524446  5  5  1 14
 -0.00035003917648101  5  9  1 14
 -0.00088945998168624  5 17  1 14
    -0.01245762861737  5 12  1 15
    0.034496815969124  5 21  1 15
   -0.012457628617003  5 13  1 16
    0.034496815967553  5 22  1 16
    0.052694171264998  5  1  1 17
    0.048447130674088  5  2  1 17
  -0.0095636242046775  5  6  1 17
   -0.014384830474187  5 14  1 17
    0.026185618904303  5 18  1 17
    0.039833491963734  5 23  1 17
   -0.015296333249804  5  5  1 18
  -0.0038422346818557  5  9  1 18
   -0.016960014619909  5 17  1 18
   0.0091004588429817  5  3  1 21
   0.0021086941575107  5  7  1 21
   0.0061569172934206  5 15  1 21
   0.0091004588432411  5  4  1 22
   0.0021086941574642  5  8  1 22
   0.0061569172930368  5 16  1 22
    0.010508304726601  5  5  1 23
   0.0024349102785838  5  9  1 23
   0.0071093957107818  5 17  1 23
   -0.019964420923277  5  5  2  1
   -0.005020870151399  5  9  2  1
   -0.021567310060234  5 17  2  1
     0.98897875024318  5  5  2  2
     0.12972734047671  5  9  2  2
     0.23806098462393  5 17  2  2
   -0.083101435390292  5 12  2  3
     0.12731891955249  5 21  2  3
   -0.083101435391731  5 13  2  4
      0.1273189195547  5 22  2  4
    0.048837974479401  5  1  2  5
      0.1988836062282  5  2  2  5
   -0.020161192502706  5  6  2  5
   -0.095957272198905  5 14  2  5
    0.034173844405508  5 18  2  5
     0.14701522496345  5 23  2  5
    -0.10917195287414  5  5  2  6
   -0.024166121745555  5  9  2  6
   -0.055664045106966  5 17  2  6
   -0.011047412204696  5 12  2  7
     0.02657346514808  5 21  2  7
    -0.01104741219915  5 13  2  8
    0.026573465143451  5 22  2  8
    0.010732899824361  5  1  2  9
    0.036436903107759  5  2  2  9
  -0.0076578241617444  5  6  2  9
   -0.012756452791273  5 14  2  9
    0.012837019085985  5 18  2  9
    0.030684394486457  5 23  2  9
   -0.034289049947632  5  3  2 12
  -0.0035566985606445  5  7  2 12
   0.0037068828654783  5 15  2 12
   -0.034289049948142  5  4  2 13
  -0.0035566985580671  5  8  2 13
   0.0037068828663732  5 16  2 13
   -0.039593584468747  5  5  2 14
  -0.0041069217358201  5  9  2 14
   0.0042803396214653  5 17  2 14
   0.0010420751177945  5 12  2 15
    0.043461661492809  5 21  2 15
   0.0010420751202581  5 13  2 16
    0.043461661487776  5 22  2 16
    0.025912755716399  5  1  2 17
    0.048003701706954  5  2  2 17
   -0.020031002119925  5  6  2 17
   0.0012032847029134  5 14  2 17
      0.0482998625499  5 18  2 17
    0.050185203898097  5 23  2 17
     0.19176925043166  5  5  2 18
    0.046543809660269  5  9  2 18
      0.1341987155707  5 17  2 18
    0.061336823388009  5  3  2 21
    0.013349833779435  5  7  2 21
    0.023105404661456  5 15  2 21
    0.061336823389185  5  4  2 22
    0.013349833777415  5  8  2 22
    0.023105404658998  5 16  2 22
    0.070825662993915  5  5  2 23
    0.015415060240316  5  9  2 23
    0.026679823187696  5 17  2 23
   -0.012922434822223  5 12  3  1
    0.034548833998778  5 21  3  1
   -0.083101435390292  5 12  3  2
     0.12731891955249  5 21  3  2
     0.93017825297826  5  5  3  3
     0.11885169396152  5  9  3  3
     0.22481003348571  5 17  3  3
    0.051010344418509  5  3  3  5
   0.0089581676151263  5  7  3  5
    0.013944656317331  5 15  3  5
  -0.0018273516250068  5 12  3  6
   -0.020870748964782  5 21  3  6
     0.11885169407649  5  5  3  7
    0.023986374002644  5  9  3  7