 &FCI NORB=   2,NELEC= 2,MS2=0,
  ORBSYM=1,6
  ISYM=1,
 &END
 0.5557265536180771    1    1    1    1
 0.562324444834039    1    1    2    2
 0.2278545086115679    2    1    2    1
 0.562324444834039    2    2    1    1
 0.5865156856440028    2    2    2    2
 -0.9167195988196193    1    1  0  0
 -0.6638136201406916    2    2  0  0
 0.35900760578019  0  0  0  0
