 &FCI NORB=19,NELEC= 10,MS2=  0
  ORBSYM=1,1,1,4,3,1,1,4,3,1,4,3,1,1,2,1,4,3,1,
  ISYM=1 UHF=.FALSE.
  SYML=-20,-20,-20,-20,-20,-20,-20,-20,-20,-20,-20,-20,-20,-20,2,2,-20,-20,-20,
  SYMLZ=0,0,0,-1,1,0,0,-1,1,0,-1,1,0,0,-2,2,-1,1,0,
 &END
      5.3562671917387  1  1  1  1
     -0.5207567522742  1  2  1  1
     0.12429501344159  1  3  1  1
     0.12672267867047  1  6  1  1
    0.077201029112269  1  7  1  1
     0.14050990825156  1 10  1  1
    -0.44664318356656  1 13  1  1
     0.12636691315152  1 14  1  1
   -0.013768809105794  1 19  1  1
     -0.5207567522742  1  1  1  2
    0.082346815486069  1  2  1  2
   -0.016342513048543  1  3  1  2
   -0.021514316615133  1  6  1  2
   -0.014386541695938  1  7  1  2
   -0.019304189903039  1 10  1  2
    0.070723258893479  1 13  1  2
   -0.023844454566745  1 14  1  2
   0.0008629696165416  1 19  1  2
     0.12429501344159  1  1  1  3
   -0.016342513048543  1  2  1  3
    0.032498815630131  1  3  1  3
  -0.0057463925539624  1  6  1  3
   -0.014722358078585  1  7  1  3
     0.03191392325404  1 10  1  3
   -0.016476077987347  1 13  1  3
   -0.024214432847741  1 14  1  3
  -0.0084277850031487  1 19  1  3
    0.038504557735248  1  4  1  4
   -0.041617236719326  1  8  1  4
    0.018188105362174  1 11  1  4
   0.0012942211353023  1 17  1  4
    0.038504557739403  1  5  1  5
   -0.041617236717118  1  9  1  5
    0.018188105368963  1 12  1  5
   0.0012942211354751  1 18  1  5
     0.12672267867047  1  1  1  6
   -0.021514316615133  1  2  1  6
  -0.0057463925539624  1  3  1  6
   0.0090574095303605  1  6  1  6
   0.0097833354667209  1  7  1  6
  -0.0045756427448652  1 10  1  6
   -0.017616475577136  1 13  1  6
    0.016166898992654  1 14  1  6
    0.002588869446391  1 19  1  6
    0.077201029112269  1  1  1  7
   -0.014386541695938  1  2  1  7
   -0.014722358078585  1  3  1  7
   0.0097833354667209  1  6  1  7
    0.013105065954795  1  7  1  7
   -0.013509050371258  1 10  1  7
   -0.010878334833833  1 13  1  7
    0.021649975118533  1 14  1  7
   0.0046034912429048  1 19  1  7
   -0.041617236719326  1  4  1  8
    0.045140847420111  1  8  1  8
   -0.019725337813463  1 11  1  8
  -0.0015265867242915  1 17  1  8
   -0.041617236717118  1  5  1  9
    0.045140847410444  1  9  1  9
   -0.019725337817641  1 12  1  9
  -0.0015265867242877  1 18  1  9
     0.14050990825156  1  1  1 10
   -0.019304189903039  1  2  1 10
     0.03191392325404  1  3  1 10
  -0.0045756427448652  1  6  1 10
   -0.013509050371258  1  7  1 10
    0.031600090669411  1 10  1 10
   -0.018920816785213  1 13  1 10
   -0.022331236609469  1 14  1 10
  -0.0082894530835873  1 19  1 10
    0.018188105362174  1  4  1 11
   -0.019725337813463  1  8  1 11
   0.0086672144490956  1 11  1 11
  0.00037632932839769  1 17  1 11
    0.018188105368963  1  5  1 12
   -0.019725337817641  1  9  1 12
   0.0086672144546026  1 12  1 12
  0.00037632932865122  1 18  1 12
    -0.44664318356655  1  1  1 13
    0.070723258893478  1  2  1 13
   -0.016476077987346  1  3  1 13
   -0.017616475577136  1  6  1 13
   -0.010878334833833  1  7  1 13
   -0.018920816785213  1 10  1 13
    0.061325270484809  1 13  1 13
   -0.018043950129353  1 14  1 13
   0.0012985601383548  1 19  1 13
     0.12636691315152  1  1  1 14
   -0.023844454566745  1  2  1 14
   -0.024214432847741  1  3  1 14
    0.016166898992654  1  6  1 14
    0.021649975118533  1  7  1 14
   -0.022331236609469  1 10  1 14
   -0.018043950129353  1 13  1 14
    0.035934163203533  1 14  1 14
   0.0075373690338946  1 19  1 14
   0.0018469080151791  1 15  1 15
   0.0018469080151791  1 16  1 16
   0.0012942211353023  1  4  1 17
  -0.0015265867242915  1  8  1 17
  0.00037632932839769  1 11  1 17
   0.0019389802236885  1 17  1 17
   0.0012942211354751  1  5  1 18
  -0.0015265867242877  1  9  1 18
  0.00037632932865122  1 12  1 18
    0.001938980223693  1 18  1 18
   -0.013768809105793  1  1  1 19
  0.00086296961654146  1  2  1 19
  -0.0084277850031487  1  3  1 19
    0.002588869446391  1  6  1 19
   0.0046034912429049  1  7  1 19
  -0.0082894530835873  1 10  1 19
   0.0012985601383546  1 13  1 19
   0.0075373690338946  1 14  1 19
   0.0044165729440326  1 19  1 19
     -0.5207567522742  2  1  1  1
      1.2424086575751  2  2  1  1
    -0.09225867646219  2  3  1  1
    -0.19501014603464  2  6  1  1
    -0.12316006662495  2  7  1  1
    -0.10215192573842  2 10  1  1
      0.4449871798239  2 13  1  1
    -0.14078288119663  2 14  1  1
   -0.001330373994389  2 19  1  1
    0.082346815486069  2  1  1  2
   -0.020624690940393  2  2  1  2
   0.0077947748278628  2  3  1  2
   0.0045786998757702  2  6  1  2
   0.0024142660845532  2  7  1  2
    0.006595550404049  2 10  1  2
   -0.018570001261861  2 13  1  2
   0.0055024402705829  2 14  1  2
 -0.00079039127133442  2 19  1  2
   -0.016342513048543  2  1  1  3
    0.013689084291296  2  2  1  3
    0.029499386608199  2  3  1  3
   -0.011576202900617  2  6  1  3
   -0.014272663378011  2  7  1  3
    0.013114679965544  2 10  1  3
   0.0069744725458265  2 13  1  3
    -0.01216226610898  2 14  1  3
  -0.0051814599575033  2 19  1  3
    0.038775314751879  2  4  1  4
   -0.021426532331571  2  8  1  4
   0.0095210596557408  2 11  1  4
  -0.0026824975338066  2 17  1  4
    0.038775314754853  2  5  1  5
   -0.021426532329582  2  9  1  5
   0.0095210596587765  2 12  1  5
  -0.0026824975339022  2 18  1  5
   -0.021514316615133  2  1  1  6
   0.0017608508147745  2  2  1  6
   -0.012352802999649  2  3  1  6
   0.0024903348242698  2  6  1  6
   0.0041232664018784  2  7  1  6
  -0.0064979839230054  2 10  1  6
   0.0034927377211782  2 13  1  6
   0.0024745264129266  2 14  1  6
   0.0018792494580638  2 19  1  6
   -0.014386541695938  2  1  1  7
  -0.0021933073591884  2  2  1  7
   -0.019127790713193  2  3  1  7
   0.0054824770870091  2  6  1  7
   0.0078483385191995  2  7  1  7
  -0.0093240099055544  2 10  1  7
   0.0012595182192892  2 13  1  7
   0.0059749431906428  2 14  1  7
   0.0024199514639797  2 19  1  7
   -0.038274939436091  2  4  1  8
    0.021720076746332  2  8  1  8
  -0.0094657151477201  2 11  1  8
   0.0021232145080267  2 17  1  8
   -0.038274939432969  2  5  1  9
    0.021720076740947  2  9  1  9
  -0.0094657151492428  2 12  1  9
    0.002123214507544  2 18  1  9
   -0.019304189903039  2  1  1 10
    0.012894710752498  2  2  1 10
    0.025283409818302  2  3  1 10
   -0.010359972058674  2  6  1 10
   -0.012625912473495  2  7  1 10
    0.011498593240923  2 10  1 10
   0.0071350491349573  2 13  1 10
   -0.011120720572757  2 14  1 10
  -0.0051111301939034  2 19  1 10
    0.016530175526428  2  4  1 11
  -0.0092701334904454  2  8  1 11
   0.0044385824894084  2 11  1 11
  -0.0021768708727532  2 17  1 11
    0.016530175532161  2  5  1 12
  -0.0092701334920737  2  9  1 12
   0.0044385824918393  2 12  1 12
  -0.0021768708730566  2 18  1 12
    0.070723258893478  2  1  1 13
   -0.016828784078813  2  2  1 13
   0.0037850777342337  2  3  1 13
   0.0044153983855572  2  6  1 13
   0.0030962589647883  2  7  1 13
   0.0042755857887172  2 10  1 13
   -0.014632519293778  2 13  1 13
   0.0054825223266342  2 14  1 13
  -0.0010674006648344  2 19  1 13
   -0.023844454566745  2  1  1 14
  -0.0027773498403319  2  2  1 14
   -0.028173112792627  2  3  1 14
    0.008050969102771  2  6  1 14
    0.011779629663039  2  7  1 14
   -0.014001094153739  2 10  1 14
    0.002179901179506  2 13  1 14
   0.0093827848588154  2 14  1 14
    0.003131331639677  2 19  1 14
   0.0072451019892698  2 15  1 15
   0.0072451019892698  2 16  1 16
  0.00021047066068652  2  4  1 17
 -0.00083511006195558  2  8  1 17
  -0.0016286104257448  2 11  1 17
   0.0071666631886027  2 17  1 17
  0.00021047066077737  2  5  1 18
 -0.00083511006225302  2  9  1 18
  -0.0016286104256309  2 12  1 18
   0.0071666631885829  2 18  1 18
  0.00086296961654144  2  1  1 19
  -0.0030983721168802  2  2  1 19
  -0.0085673304164858  2  3  1 19
   0.0028401289347664  2  6  1 19
   0.0026232681095259  2  7  1 19
  -0.0052582685439465  2 10  1 19
  -0.0025375319500344  2 13  1 19
   0.0010081829894585  2 14  1 19
   0.0084511302345151  2 19  1 19
    0.082346815486069  2  1  2  1
   -0.020624690940393  2  2  2  1
   0.0077947748278628  2  3  2  1
   0.0045786998757702  2  6  2  1
   0.0024142660845532  2  7  2  1
    0.006595550404049  2 10  2  1
   -0.018570001261861  2 13  2  1
   0.0055024402705829  2 14  2  1
 -0.00079039127133442  2 19  2  1
   -0.020624690940393  2  1  2  2
     0.88146990169571  2  2  2  2
   0.0099209156184438  2  3  2  2
    -0.10668698470746  2  6  2  2
   -0.058070198700024  2  7  2  2
       -0.02461919176  2 10  2  2
     0.15926986464597  2 13  2  2
   -0.033932902047791  2 14  2  2
  -0.0088068844580912  2 19  2  2
   0.0077947748278627  2  1  2  3
   0.0099209156184438  2  2  2  3
     0.16632256947862  2  3  2  3
   -0.028414133615195  2  6  2  3
   -0.023038621821942  2  7  2  3
    0.045206656904594  2 10  2  3
  -0.0071578344509454  2 13  2  3
    0.011391961106465  2 14  2  3
   -0.018104454762847  2 19  2  3
     0.16295617573695  2  4  2  4
   -0.041516736635966  2  8  2  4
    0.027078985315801  2 11  2  4
   -0.020245035428543  2 17  2  4
     0.16295617574146  2  5  2  5
   -0.041516736627016  2  9  2  5
    0.027078985319572  2 12  2  5
   -0.020245035428894  2 18  2  5
   0.0045786998757702  2  1  2  6
    -0.10668698470746  2  2  2  6
   -0.028414133615195  2  3  2  6
    0.033645645166026  2  6  2  6
    0.030647939742369  2  7  2  6
  -0.0046413598444142  2 10  2  6
   -0.039558751685026  2 13  2  6
    0.017863750907476  2 14  2  6
   0.0060267065741802  2 19  2  6
   0.0024142660845532  2  1  2  7
   -0.058070198700024  2  2  2  7
   -0.023038621821942  2  3  2  7
    0.030647939742369  2  6  2  7
    0.047226883341646  2  7  2  7
  -0.0032365956011448  2 10  2  7
   -0.020683476846041  2 13  2  7
    0.033344894422955  2 14  2  7
 -0.00032136610576659  2 19  2  7
   -0.041516736635966  2  4  2  8
     0.04372895157084  2  8  2  8
   -0.004788771281607  2 11  2  8
  -0.0041110231163304  2 17  2  8
   -0.041516736627016  2  5  2  9
    0.043728951566001  2  9  2  9
  -0.0047887712821995  2 12  2  9
  -0.0041110231212667  2 18  2  9
   0.0065955504040489  2  1  2 10
       -0.02461919176  2  2  2 10
    0.045206656904594  2  3  2 10
  -0.0046413598444143  2  6  2 10
  -0.0032365956011446  2  7  2 10
    0.037535426881754  2 10  2 10
  -0.0085922656806974  2 13  2 10
    0.004071903252205  2 14  2 10
   -0.023385806720664  2 19  2 10
    0.027078985315801  2  4  2 11
   -0.004788771281607  2  8  2 11
    0.027374557799767  2 11  2 11
   -0.025957049954329  2 17  2 11
    0.027078985319572  2  5  2 12
  -0.0047887712821995  2  9  2 12
    0.027374557800321  2 12  2 12
   -0.025957049953499  2 18  2 12
   -0.018570001261861  2  1  2 13
     0.15926986464597  2  2  2 13
  -0.0071578344509452  2  3  2 13
   -0.039558751685026  2  6  2 13
   -0.020683476846041  2  7  2 13
   -0.008592265680697  2 10  2 13
    0.098565734468704  2 13  2 13
   -0.021618998584198  2 14  2 13
   -0.016216423489453  2 19  2 13
   0.0055024402705828  2  1  2 14
   -0.033932902047792  2  2  2 14
    0.011391961106465  2  3  2 14
    0.017863750907476  2  6  2 14
    0.033344894422955  2  7  2 14
   0.0040719032522052  2 10  2 14
   -0.021618998584199  2 13  2 14
    0.049025853713513  2 14  2 14
   -0.016505541891168  2 19  2 14
    0.082825382884657  2 15  2 15
    0.082825382884658  2 16  2 16
   -0.020245035428543  2  4  2 17
  -0.0041110231163304  2  8  2 17
   -0.025957049954329  2 11  2 17
    0.079110485197894  2 17  2 17
   -0.020245035428894  2  5  2 18
  -0.0041110231212668  2  9  2 18
   -0.025957049953499  2 12  2 18
    0.079110485197658  2 18  2 18
 -0.00079039127133425  2  1  2 19
  -0.0088068844580913  2  2  2 19
   -0.018104454762847  2  3  2 19
   0.0060267065741802  2  6  2 19
 -0.00032136610576634  2  7  2 19
   -0.023385806720664  2 10  2 19
   -0.016216423489453  2 13  2 19
   -0.016505541891168  2 14  2 19
    0.067561338382652  2 19  2 19
     0.12429501344159  3  1  1  1
    -0.09225867646219  3  2  1  1
      1.0927599652599  3  3  1  1
    -0.18049314275226  3  6  1  1
    -0.26975195781204  3  7  1  1
     0.39804667691637  3 10  1  1
    -0.10373301057237  3 13  1  1
    -0.24927498502196  3 14  1  1
   -0.089206515037815  3 19  1  1
   -0.016342513048543  3  1  1  2
   0.0077947748278628  3  2  1  2
   -0.013280735012417  3  3  1  2
   0.0026109948461065  3  6  1  2
   0.0069461605709781  3  7  1  2
   -0.012064989482896  3 10  1  2
   0.0068433417317376  3 13  1  2
    0.010907960916145  3 14  1  2
  0.00055747779034158  3 19  1  2
    0.032498815630131  3  1  1  3
    0.029499386608199  3  2  1  3
  -0.0056079133633384  3  3  1  3
  -0.0028068301284288  3  6  1  3
   0.0046304996996836  3  7  1  3
  0.00027353845396724  3 10  1  3
     0.01849958217186  3 13  1  3
   0.0053981190573216  3 14  1  3
   -0.022102069106218  3 19  1  3
  -0.0090137092159183  3  4  1  4
   0.0087815683557208  3  8  1  4
   0.0050100302506376  3 11  1  4
    -0.02459166483036  3 17  1  4
  -0.0090137092166214  3  5  1  5
   0.0087815683565842  3  9  1  5
   0.0050100302498033  3 12  1  5
   -0.024591664831541  3 18  1  5
  -0.0057463925539624  3  1  1  6
   -0.012352802999649  3  2  1  6
    0.005937948277657  3  3  1  6
  0.00019712821572749  3  6  1  6
  -0.0036205890360419  3  7  1  6
   0.0036615162921261  3 10  1  6
  -0.0084182336286438  3 13  1  6
  -0.0051526952381829  3 14  1  6
   0.0073310825684323  3 19  1  6
   -0.014722358078585  3  1  1  7
   -0.019127790713193  3  2  1  7
   0.0076427110010145  3  3  1  7
  0.00076928608491993  3  6  1  7
  -0.0047472411451136  3  7  1  7
   0.0036350024623369  3 10  1  7
   -0.012769147823011  3 13  1  7
   -0.006352591841194  3 14  1  7
    0.012871435322727  3 19  1  7
   0.0093335568324679  3  4  1  8
  -0.0089566065379861  3  8  1  8
  -0.0045992597372879  3 11  1  8
    0.024405906554152  3 17  1  8
   0.0093335568318914  3  5  1  9
   -0.008956606537453  3  9  1  9
  -0.0045992597356326  3 12  1  9
    0.024405906551499  3 18  1  9
     0.03191392325404  3  1  1 10
    0.025283409818302  3  2  1 10
  -0.0041110794725419  3  3  1 10
  -0.0027633144988051  3  6  1 10
   0.0034222159656114  3  7  1 10
  0.00062315111448295  3 10  1 10
    0.016183067135082  3 13  1 10
   0.0038885743129945  3 14  1 10
   -0.019234316412775  3 19  1 10
  -0.0030109169239477  3  4  1 11
   0.0032822038095946  3  8  1 11
   0.0022834520422995  3 11  1 11
   -0.010219737114177  3 17  1 11
  -0.0030109169252953  3  5  1 12
   0.0032822038110504  3  9  1 12
    0.002283452042531  3 12  1 12
   -0.010219737117511  3 18  1 12
   -0.016476077987346  3  1  1 13
   0.0037850777342337  3  2  1 13
  -0.0086462407170077  3  3  1 13
   0.0018672440875145  3  6  1 13
   0.0044564122439562  3  7  1 13
  -0.0087850776712282  3 10  1 13
    0.003793143420591  3 13  1 13
   0.0075733006859286  3 14  1 13
   0.0023314758338103  3 19  1 13
   -0.024214432847741  3  1  1 14
   -0.028173112792627  3  2  1 14
    0.012005820970961  3  3  1 14
   0.0010708285448278  3  6  1 14
  -0.0070919888008343  3  7  1 14
   0.0060221760136023  3 10  1 14
   -0.019344160509271  3 13  1 14
  -0.0093943638431712  3 14  1 14
    0.019181920618823  3 19  1 14
  -0.0018871507870269  3 15  1 15
  -0.0018871507870269  3 16  1 16
  -0.0060662486921368  3  4  1 17
    0.003990261618885  3  8  1 17
  -0.0016734343114686  3 11  1 17
   -0.002568023876191  3 17  1 17
  -0.0060662486923534  3  5  1 18
   0.0039902616183899  3  9  1 18
  -0.0016734343119434  3 12  1 18
  -0.0025680238762523  3 18  1 18
  -0.0084277850031487  3  1  1 19
  -0.0085673304164858  3  2  1 19
  -0.0044992313217117  3  3  1 19
   0.0027445530882781  3  6  1 19
   0.0016984634201909  3  7  1 19
  -0.0031974956725543  3 10  1 19
  -0.0048801888220571  3 13  1 19
   0.0018643746470883  3 14  1 19
   0.0041003095974293  3 19  1 19
   -0.016342513048543  3  1  2  1
   0.0077947748278628  3  2  2  1
   -0.013280735012417  3  3  2  1
   0.0026109948461065  3  6  2  1
   0.0069461605709781  3  7  2  1
   -0.012064989482896  3 10  2  1
   0.0068433417317376  3 13  2  1
    0.010907960916145  3 14  2  1
  0.00055747779034158  3 19  2  1
    0.013689084291296  3  1  2  2
   0.0099209156184438  3  2  2  2
     0.79600272457031  3  3  2  2
   -0.096214202146547  3  6  2  2
   -0.098760942559398  3  7  2  2
     0.17378641530714  3 10  2  2
   -0.023716301354373  3 13  2  2
   -0.039715505429275  3 14  2  2
     -0.0491490800923  3 19  2  2
    0.029499386608199  3  1  2  3
     0.16632256947862  3  2  2  3
    -0.03376502088509  3  3  2  3
    0.017849346309382  3  6  2  3
    0.081145218876255  3  7  2  3
    0.014357873568319  3 10  2  3
    0.054118896273622  3 13  2  3
    0.071832294601953  3 14  2  3
   -0.082074933282378  3 19  2  3
   -0.029086385089269  3  4  2  4
     0.03502467269025  3  8  2  4
    0.046132061944499  3 11  2  4
    -0.10119549608501  3 17  2  4
   -0.029086385090108  3  5  2  5
    0.035024672696857  3  9  2  5
    0.046132061940063  3 12  2  5
    -0.10119549608633  3 18  2  5
   -0.011576202900617  3  1  2  6
   -0.028414133615195  3  2  2  6
   -0.067920321127535  3  3  2  6
    0.024308314177383  3  6  2  6
    0.024486295878367  3  7  2  6
   -0.037922607143408  3 10  2  6
   -0.010209836971599  3 13  2  6
   0.0044532077486677  3 14  2  6
    0.036836856458556  3 19  2  6
   -0.014272663378011  3  1  2  7
   -0.023038621821942  3  2  2  7
  -0.0019847388271109  3  3  2  7
    0.021905398752948  3  6  2  7
    0.038021762944682  3  7  2  7
   -0.012985445088097  3 10  2  7
   -0.017231903310249  3 13  2  7
   0.0084802134788047  3 14  2  7
    0.048774139436891  3 19  2  7
    0.019361213804487  3  4  2  8
 -0.00063229639233397  3  8  2  8
    0.012176424206244  3 11  2  8
    0.033775580799473  3 17  2  8
    0.019361213806269  3  5  2  9
 -0.00063229638561089  3  9  2  9
    0.012176424210687  3 12  2  9
    0.033775580793915  3 18  2  9
    0.013114679965544  3  1  2 10
    0.045206656904594  3  2  2 10
   -0.021619292639828  3  3  2 10
  -0.0034131501729412  3  6  2 10
    0.019416431698842  3  7  2 10
   -0.020343094527083  3 10  2 10
    0.034843189551374  3 13  2 10
    0.024441935414482  3 14  2 10
   -0.017896616941996  3 19  2 10
    0.016290149486463  3  4  2 11
    0.015842166495294  3  8  2 11
    0.019659183848588  3 11  2 11
  -0.0098611870500537  3 17  2 11
    0.016290149484112  3  5  2 12
    0.015842166498314  3  9  2 12
    0.019659183842707  3 12  2 12
  -0.0098611870529879  3 18  2 12
   0.0069744725458264  3  1  2 13
  -0.0071578344509453  3  2  2 13
     0.14331351317027  3  3  2 13
   -0.036747677707415  3  6  2 13
   -0.051792177431342  3  7  2 13
    0.081235045780825  3 10  2 13
   -0.013361586206422  3 13  2 13
    -0.04747731076802  3 14  2 13
   -0.018488562299669  3 19  2 13
    -0.01216226610898  3  1  2 14
    0.011391961106465  3  2  2 14
   0.0084370659742175  3  3  2 14
    0.011993548514747  3  6  2 14
    0.030272141550141  3  7  2 14
  -0.0017023696082386  3 10  2 14
   -0.013312166531908  3 13  2 14
    0.034926663850084  3 14  2 14
    0.028260885432548  3 19  2 14
   -0.019458462141632  3 15  2 15
   -0.019458462141632  3 16  2 16
   -0.046830823641714  3  4  2 17
    0.011323431421958  3  8  2 17
   -0.011975664948358  3 11  2 17
  -0.0093333966032087  3 17  2 17
   -0.046830823642352  3  5  2 18
    0.011323431418212  3  9  2 18
   -0.011975664948982  3 12  2 18
   -0.009333396603212  3 18  2 18
  -0.0051814599575033  3  1  2 19
   -0.018104454762847  3  2  2 19
   -0.040281076451118  3  3  2 19
     0.01830687099669  3  6  2 19
    0.024046845515847  3  7  2 19
    -0.01075559000283  3 10  2 19
  -0.0082944118599071  3 13  2 19
     0.01116788325539  3 14  2 19
  -0.0055866365707603  3 19  2 19
    0.032498815630131  3  1  3  1
    0.029499386608199  3  2  3  1
  -0.0056079133633384  3  3  3  1
  -0.0028068301284288  3  6  3  1
   0.0046304996996836  3  7  3  1
  0.00027353845396724  3 10  3  1
     0.01849958217186  3 13  3  1
   0.0053981190573216  3 14  3  1
   -0.022102069106218  3 19  3  1
    0.029499386608199  3  1  3  2
     0.16632256947862  3  2  3  2
   -0.033765020885091  3  3  3  2
    0.017849346309382  3  6  3  2
    0.081145218876255  3  7  3  2
    0.014357873568319  3 10  3  2
    0.054118896273622  3 13  3  2
    0.071832294601953  3 14  3  2
   -0.082074933282377  3 19  3  2
  -0.0056079133633385  3  1  3  3
    -0.03376502088509  3  2  3  3
     0.80208799275623  3  3  3  3
   -0.083151942434779  3  6  3  3
   -0.084102246170795  3  7  3  3
     0.15903274947337  3 10  3  3
   -0.046307904604952  3 13  3  3
   -0.051913083765175  3 14  3  3
     0.01933877562731  3 19  3  3
     0.04440151550508  3  4  3  4
   -0.010624581603295  3  8  3  4
   0.0047166850280435  3 11  3  4
    0.035509476259983  3 17  3  4
    0.044401515506222  3  5  3  5
   -0.010624581601532  3  9  3  5
   0.0047166850286844  3 12  3  5
    0.035509476260401  3 18  3  5
  -0.0028068301284288  3  1  3  6
    0.017849346309382  3  2  3  6
   -0.083151942434779  3  3  3  6
    0.038226949697949  3  6  3  6
    0.054994873839186  3  7  3  6
   -0.027284424490503  3 10  3  6
  0.00043705671995532  3 13  3  6
    0.019969829883159  3 14  3  6
   0.0080910776018214  3 19  3  6
   0.0046304996996836  3  1  3  7
    0.081145218876255  3  2  3  7
   -0.084102246170795  3  3  3  7
    0.054994873839186  3  6  3  7
     0.12350937020611  3  7  3  7
   -0.029048800501519  3 10  3  7
    0.022819241442068  3 13  3  7
    0.065589244917349  3 14  3  7
  -0.0069123785390062  3 19  3  7
   -0.010624581603295  3  4  3  8
    0.032182381499605  3  8  3  8
    0.021389332888119  3 11  3  8
   -0.022530958193018  3 17  3  8
   -0.010624581601532  3  5  3  9
    0.032182381505627  3  9  3  9
    0.021389332890597  3 12  3  9
   -0.022530958195298  3 18  3  9
  0.00027353845396724  3  1  3 10
    0.014357873568319  3  2  3 10
     0.15903274947337  3  3  3 10
   -0.027284424490503  3  6  3 10
   -0.029048800501519  3  7  3 10
     0.10656657671702  3 10  3 10
   -0.021863435621362  3 13  3 10
   -0.025268840782799  3 14  3 10
     -0.0218984881591  3 19  3 10
   0.0047166850280435  3  4  3 11
    0.021389332888119  3  8  3 11
    0.044191225583366  3 11  3 11
   -0.024038851953873  3 17  3 11
   0.0047166850286844  3  5  3 12
    0.021389332890597  3  9  3 12
      0.0441912255765  3 12  3 12
   -0.024038851951393  3 18  3 12
     0.01849958217186  3  1  3 13
    0.054118896273622  3  2  3 13
   -0.046307904604952  3  3  3 13
  0.00043705671995541  3  6  3 13
    0.022819241442069  3  7  3 13
   -0.021863435621362  3 10  3 13
    0.045133875662283  3 13  3 13
    0.025616546739578  3 14  3 13
   -0.039119482695088  3 19  3 13
   0.0053981190573216  3  1  3 14
    0.071832294601953  3  2  3 14
   -0.051913083765174  3  3  3 14
    0.019969829883159  3  6  3 14
    0.065589244917349  3  7  3 14
   -0.025268840782799  3 10  3 14
    0.025616546739578  3 13  3 14
     0.08698459826491  3 14  3 14
   -0.022116424958021  3 19  3 14
     0.02066254414298  3 15  3 15
     0.02066254414298  3 16  3 16
    0.035509476259983  3  4  3 17
   -0.022530958193018  3  8  3 17
   -0.024038851953873  3 11  3 17
    0.096736016592666  3 17  3 17
    0.035509476260401  3  5  3 18
   -0.022530958195298  3  9  3 18
   -0.024038851951393  3 12  3 18
    0.096736016592365  3 18  3 18
   -0.022102069106218  3  1  3 19
   -0.082074933282377  3  2  3 19
    0.019338775627311  3  3  3 19
   0.0080910776018214  3  6  3 19
  -0.0069123785390063  3  7  3 19
     -0.0218984881591  3 10  3 19
   -0.039119482695088  3 13  3 19
   -0.022116424958021  3 14  3 19
      0.1026955765004  3 19  3 19
       1.220374234393  4  4  1  1
    -0.54234960993342  4  8  1  1
     0.22038877287036  4 11  1  1
   0.0059421104194725  4 17  1  1
   -0.015186164592954  4  4  1  2
    0.016593098690376  4  8  1  2
   -0.006245024733299  4 11  1  2
  -0.0035320621279411  4 17  1  2
   0.0041748909662851  4  4  1  3
  -0.0011813033655819  4  8  1  3
   0.0080960874227157  4 11  1  3
   -0.023899748505036  4 17  1  3
    0.038504557735248  4  1  1  4
    0.038775314751879  4  2  1  4
  -0.0090137092159183  4  3  1  4
  -0.0072305162840375  4  6  1  4
  -0.0073683210518861  4  7  1  4
   -0.009711461388561  4 10  1  4
    0.016316094503633  4 13  1  4
   -0.010671209560901  4 14  1  4
   -0.029059008008077  4 16  1  4
    0.015944701716639  4 19  1  4
    0.029059008009502  4 15  1  5
   0.0029656059046123  4  4  1  6
  -0.0045609118171224  4  8  1  6
 -0.00082816799440473  4 11  1  6
   0.0091688064931725  4 17  1  6
   0.0011607292571855  4  4  1  7
   -0.003464483521782  4  8  1  7
  -0.0030270766107605  4 11  1  7
    0.014929611164214  4 17  1  7
   -0.041617236719326  4  1  1  8
   -0.038274939436091  4  2  1  8
   0.0093335568324679  4  3  1  8
   0.0071208514382899  4  6  1  8
   0.0070928111321093  4  7  1  8
   0.0099107194898222  4 10  1  8
   -0.016864837362181  4 13  1  8
    0.010486054014574  4 14  1  8
    0.028694889638077  4 16  1  8
    -0.01595451276831  4 19  1  8
   -0.028694889634948  4 15  1  9
   0.0039037214070499  4  4  1 10
  -0.0015704111434942  4  8  1 10
   0.0071350250435701  4 11  1 10
   -0.020598723857864  4 17  1 10
    0.018188105362174  4  1  1 11
    0.016530175526428  4  2  1 11
  -0.0030109169239477  4  3  1 11
  -0.0033879636297426  4  6  1 11
  -0.0035463196588915  4  7  1 11
  -0.0037441737652067  4 10  1 11
   0.0072802407458037  4 13  1 11
  -0.0049527446233553  4 14  1 11
   -0.012258690514352  4 16  1 11
   0.0065981183264497  4 19  1 11
    0.012258690518295  4 15  1 12
   -0.012042559828479  4  4  1 13
    0.013003310882981  4  8  1 13
  -0.0054815871664551  4 11  1 13
 -0.00074355730241812  4 17  1 13
   0.0014986575431962  4  4  1 14
   -0.004914283808352  4  8  1 14
  -0.0043668761824519  4 11  1 14
    0.022115689740339  4 17  1 14
   0.0065959822527707  4  5  1 15
  -0.0045404262914472  4  9  1 15
   0.0016751565638552  4 12  1 15
  7.5469890028624e-06  4 18  1 15
  -0.0065959822525516  4  4  1 16
   0.0045404262919786  4  8  1 16
   -0.001675156563278  4 11  1 16
 -7.5469889961875e-06  4 17  1 16
   0.0012942211353023  4  1  1 17
  0.00021047066068653  4  2  1 17
  -0.0060662486921368  4  3  1 17
   0.0018176286476321  4  6  1 17
   0.0030028685806726  4  7  1 17
  -0.0034516222159766  4 10  1 17
  0.00056759244791458  4 13  1 17
   0.0029312802024675  4 14  1 17
 -0.00074937219306961  4 16  1 17
   0.0013792649063297  4 19  1 17
  0.00074937219313512  4 15  1 18
   0.0031761645007486  4  4  1 19
  -0.0029237768627131  4  8  1 19
  -0.0011590683904915  4 11  1 19
   0.0058027500303523  4 17  1 19
   -0.015186164592954  4  4  2  1
    0.016593098690376  4  8  2  1
   -0.006245024733299  4 11  2  1
  -0.0035320621279411  4 17  2  1
     0.84572089085906  4  4  2  2
    -0.20508095069186  4  8  2  2
    0.098626227298158  4 11  2  2
   -0.033309761561765  4 17  2  2
   -0.040665328740386  4  4  2  3
    0.044798657306211  4  8  2  3
     0.04368123767787  4 11  2  3
    -0.11034608724792  4 17  2  3
    0.038775314751879  4  1  2  4
     0.16295617573695  4  2  2  4
   -0.029086385089269  4  3  2  4
   -0.019861400609001  4  6  2  4
    -0.03282637174565  4  7  2  4
   -0.031238758889238  4 10  2  4
   0.0043627758418711  4 13  2  4
   -0.036092810919195  4 14  2  4
    -0.12696699311201  4 16  2  4
    0.057385209879718  4 19  2  4
     0.12696699311374  4 15  2  5
   -0.094565828666105  4  4  2  6
    0.044677956153756  4  8  2  6
   -0.026285063808477  4 11  2  6
    0.032689734500203  4 17  2  6
   -0.060318375640745  4  4  2  7
    0.030191434800776  4  8  2  7
   -0.012508052932401  4 11  2  7
    0.040024536221346  4 17  2  7
   -0.021426532331571  4  1  2  8
   -0.041516736635966  4  2  2  8
    0.019361213804487  4  3  2  8
    0.013741158481292  4  6  2  8
   0.0073412973815148  4  7  2  8
    0.011773245213025  4 10  2  8
   -0.036055345001252  4 13  2  8
    0.017761319905828  4 14  2  8
    0.034501428933245  4 16  2  8
    -0.02401942896506  4 19  2  8
   -0.034501428925677  4 15  2  9
   -0.045965044189659  4  4  2 10
    0.027894395612122  4  8  2 10
  -0.0022904347941539  4 11  2 10
   -0.026604626943359  4 17  2 10
   0.0095210596557408  4  1  2 11
    0.027078985315801  4  2  2 11
    0.016290149486463  4  3  2 11
  -0.0088512767206656  4  6  2 11
  -0.0076460207156842  4  7  2 11
  -0.0057913870155452  4 10  2 11
    0.013171455957545  4 13  2 11
  -0.0016812245283385  4 14  2 11
   -0.015831925671136  4 16  2 11
   0.0059566404584032  4 19  2 11
    0.015831925673761  4 15  2 12
     0.14457627802917  4  4  2 13
    -0.10560752088216  4  8  2 13
    0.046724040574305  4 11  2 13
 -0.00096182227415702  4 17  2 13
   -0.052329838905237  4  4  2 14
    0.039541500461122  4  8  2 14
  -0.0027557033304827  4 11  2 14
    0.011861703775045  4 17  2 14
    0.058034054731128  4  5  2 15
   -0.017689099477265  4  9  2 15
   0.0034375989745604  4 12  2 15
  -0.0034766215653341  4 18  2 15
   -0.058034054730352  4  4  2 16
    0.017689099480111  4  8  2 16
  -0.0034375989730571  4 11  2 16
    0.003476621565307  4 17  2 16
  -0.0026824975338066  4  1  2 17
   -0.020245035428543  4  2  2 17
   -0.046830823641714  4  3  2 17
    0.017233980306517  4  6  2 17
    0.025887155024625  4  7  2 17
  -0.0074567167733835  4 10  2 17
   0.0020120314711494  4 13  2 17
    0.011993789235287  4 14  2 17
    0.010159205975777  4 16  2 17
   0.0011528304851947  4 19  2 17
   -0.010159205975794  4 15  2 18
    0.025185859025822  4  4  2 19
   -0.013548213380005  4  8  2 19
   -0.001971809964002  4 11  2 19
   0.0073285519810394  4 17  2 19
   0.0041748909662851  4  4  3  1
  -0.0011813033655819  4  8  3  1
   0.0080960874227157  4 11  3  1
   -0.023899748505036  4 17  3  1
   -0.040665328740386  4  4  3  2
    0.044798657306211  4  8  3  2
     0.04368123767787  4 11  3  2
    -0.11034608724792  4 17  3  2
     0.75242542072828  4  4  3  3