 &FCI NORB=   2,NELEC= 2,MS2=0,
  ORBSYM=1,1,
  ISYM=1,
 &END
 0.6162198342330134    1    1    1    1
 0.6131983997720317    1    1    2    2
 0.2005224697062044    2    1    2    1
 0.6131983997720316    2    2    1    1
 0.6438746655960863    2    2    2    2
 -1.08269536810941    1    1  0  0
 -0.6049477809929892    2    2  0  0
 0.5  0  0  0  0
