 &FCI NORB=  28,NELEC=12,MS2=0,
  ORBSYM=0,5,0,5,6,7,0,2,3,5,0,6,7,0,2,3,5,10,11,5,6,7,14,15,0,2,3,5
  ISYM=1,
 &END
 1.972904459619669    1    1    1    1
 1.974340782103541    1    1    2    2
 -0.1771748662399551    1    1    3    1
 0.7179893284597523    1    1    3    3
 -0.1513240152389625    1    1    4    2
 0.5558378063155462    1    1    4    4
 0.5906539977785209    1    1    5    5
 0.5906539977785208    1    1    6    6
 0.03362212498073289    1    1    7    1
 0.1002942335812566    1    1    7    3
 0.5641419777137008    1    1    7    7
 0.4868081759055888    1    1    8    8
 0.4868081759055897    1    1    9    9
 -0.0898386421071847    1    1   10    2
 0.126316942152564    1    1   10    4
 0.3197586998160701    1    1   10   10
 -0.009270356840401409    1    1   11    1
 -0.07439466051991662    1    1   11    3
 -0.1739830520158986    1    1   11    7
 0.4374202478454278    1    1   11   11
 -0.1982867406880066    1    1   12    5
 0.4844686307398527    1    1   12   12
 -0.1982867406880068    1    1   13    6
 0.4844686307398531    1    1   13   13
 -0.1338735839120712    1    1   14    1
 0.128597375829761    1    1   14    3
 -0.1087521291921957    1    1   14    7
 0.01839533004695928    1    1   14   11
 0.4960505384953943    1    1   14   14
 -0.217340459898195    1    1   15    8
 0.5521498659304768    1    1   15   15
 -0.2173404598981951    1    1   16    9
 0.5521498659304768    1    1   16   16
 0.01264872958357377    1    1   17    2
 -0.08676009814470796    1    1   17    4
 0.008124530293971588    1    1   17   10
 0.5913948656266806    1    1   17   17
 0.5073144759170551    1    1   18   18
 0.507314475917055    1    1   19   19
 0.1386116956053337    1    1   20    2
 -0.1210854701342056    1    1   20    4
 -0.1240186322714508    1    1   20   10
 -0.09923056998263853    1    1   20   17
 0.5214976339570272    1    1   20   20
 -0.01375099500231807    1    1   21    5
 0.02088068002193095    1    1   21   12
 0.5449499886185493    1    1   21   21
 -0.0137509950023181    1    1   22    6
 0.02088068002193084    1    1   22   13
 0.5449499886185495    1    1   22   22
 0.4938011541623598    1    1   23   23
 0.4938011541623601    1    1   24   24
 0.0008446012219959093    1    1   25    1
 0.01381445305907478    1    1   25    3
 0.02800537037358037    1    1   25    7
 -0.06285681672412478    1    1   25   11
 0.0216158007653931    1    1   25   14
 0.5134755072772307    1    1   25   25
 0.05356434954374398    1    1   26    8
 -0.1164289931529336    1    1   26   15
 0.5247197951887652    1    1   26   26
 0.05356434954374419    1    1   27    9
 -0.1164289931529339    1    1   27   16
 0.524719795188765    1    1   27   27
 -0.05901304885856287    1    1   28    2
 -0.02416171056786484    1    1   28    4
 -0.002848924158450223    1    1   28   10
 0.2117600750477508    1    1   28   17
 -0.1414295090330762    1    1   28   20
 0.7967667766281011    1    1   28   28
 1.533279030772222    2    1    2    1
 -0.1861193665936251    2    1    3    2
 -0.1439733695891778    2    1    4    1
 0.1542673891765287    2    1    4    3
 0.01795545320466118    2    1    7    2
 -0.1742890930646608    2    1    7    4
 0.1745418364774823    2    1    8    6
 0.1745418364774826    2    1    9    5
 -0.0880810124918197    2    1   10    1
 0.08478893077705013    2    1   10    3
 -0.01474082240674883    2    1   10    7
 2.507395611408897e-15    2    1   10   10
 0.003717295165021385    2    1   11    2
 0.05401089875419198    2    1   11    4
 0.06309044304971527    2    1   11   10
 -0.0901431495706012    2    1   12    9
 -0.09014314957060102    2    1   13    8
 -0.1282188650216629    2    1   14    2
 0.1484456366552888    2    1   14    4
 0.08814393132987169    2    1   14   10
 -0.1725965164821585    2    1   15    6
 0.1867673245350217    2    1   15   13
 -0.1725965164821584    2    1   16    5
 0.1867673245350216    2    1   16   12
 -0.002363369738936483    2    1   17    1
 0.06749531430046082    2    1   17    3
 0.1733363995171004    2    1   17    7
 1.792505130809521e-15    2    1   17   10
 -0.1070095360913758    2    1   17   11
 -0.1359563871445615    2    1   17   14
 1.015592014161912e-15    2    1   17   17
 0.1416559029327545    2    1   20    1
 -0.1549433058237768    2    1   20    3
 -0.04371751092172927    2    1   20    7
 3.982219551782526e-15    2    1   20   10
 0.01762765485051406    2    1   20   11
 -0.09674376122762166    2    1   20   14
 2.600106600039184e-15    2    1   20   17
 6.082226432475401e-15    2    1   20   20
 -0.1093777797352515    2    1   21    9
 0.09691903421649199    2    1   21   16
 -0.1093777797352513    2    1   22    8
 0.09691903421649217    2    1   22   15
 0.1328133344227531    2    1   23   19
 0.1328133344227531    2    1   24   18
 -0.0009965274182252    2    1   25    2
 -0.008468107477479498    2    1   25    4
 -0.02852778381270034    2    1   25   10
 -0.09412916785127702    2    1   25   17
 0.08097079399657496    2    1   25   20
 0.06071385762872249    2    1   26    6
 -0.08428569734015671    2    1   26   13
 0.09662463518595502    2    1   26   22
 0.06071385762872266    2    1   27    5
 -0.08428569734015669    2    1   27   12
 0.09662463518595493    2    1   27   21
 -0.0802387077882149    2    1   28    1
 0.1353021708389272    2    1   28    3
 0.1395343980816354    2    1   28    7
 1.846882928145113e-15    2    1   28   10
 -0.1691965329596526    2    1   28   11
 -0.01347752423968773    2    1   28   14
 2.699545970384984e-15    2    1   28   20
 0.06423233833034875    2    1   28   25
 1.974340782103541    2    2    1    1
 1.975779451420196    2    2    2    2
 -0.1774439628867516    2    2    3    1
 0.7178974475485329    2    2    3    3
 -0.1515028864692681    2    2    4    2
 0.5559324188191009    2    2    4    4
 0.5906410956483097    2    2    5    5
 0.5906410956483096    2    2    6    6
 0.03360849884259384    2    2    7    1
 0.1001815022616039    2    2    7    3
 0.5641542370538473    2    2    7    7
 0.4868377781648339    2    2    8    8
 0.4868377781648346    2    2    9    9
 -0.08995695747129373    2    2   10    2
 0.1263509445853907    2    2   10    4
 0.3197855877063791    2    2   10   10
 -0.009231464612820069    2    2   11    1
 -0.07432979140918686    2    2   11    3
 -0.1739689627013302    2    2   11    7
 0.4374058374773037    2    2   11   11
 -0.1982969213338368    2    2   12    5
 0.4844805119542298    2    2   12   12
 -0.1982969213338371    2    2   13    6
 0.4844805119542302    2    2   13   13
 -0.1340285244831106    2    2   14    1
 0.1286230907603362    2    2   14    3
 -0.1088318940212262    2    2   14    7
 -1.720222077552057e-15    2    2   14   10
 0.01845894078832543    2    2   14   11
 0.4961130307544107    2    2   14   14
 -0.2173819549146904    2    2   15    8
 0.5522150325843365    2    2   15   15
 -0.2173819549146905    2    2   16    9
 0.5522150325843364    2    2   16   16
 0.01259821306505477    2    2   17    2
 -0.08683329137555736    2    2   17    4
 0.008093003651392539    2    2   17   10
 0.5914561096565528    2    2   17   17
 0.5072821030331102    2    2   18   18
 0.5072821030331102    2    2   19   19
 0.1388122140175887    2    2   20    2
 -0.1211117357192774    2    2   20    4
 -0.1240334486575148    2    2   20   10
 -1.88435343906511e-15    2    2   20   14
 -0.09920426397040751    2    2   20   17
 0.5215066743933403    2    2   20   20
 -0.01384012940164065    2    2   21    5
 0.02093855755369884    2    2   21   12
 0.5449398913393623    2    2   21   21
 -0.0138401294016407    2    2   22    6
 0.02093855755369876    2    2   22   13
 0.5449398913393625    2    2   22   22
 0.4937981088472986    2    2   23   23
 0.493798108847299    2    2   24   24
 0.0008387120019306155    2    2   25    1
 0.0137441734504672    2    2   25    3
 0.02792915706476297    2    2   25    7
 -0.06280819133844405    2    2   25   11
 0.02161811755176847    2    2   25   14
 1.204298161639514e-15    2    2   25   20
 0.5134563673921405    2    2   25   25
 0.05354364703071111    2    2   26    8
 -0.1164263464232616    2    2   26   15
 0.5247307722010774    2    2   26   26
 0.05354364703071128    2    2   27    9
 -0.1164263464232619    2    2   27   16
 0.5247307722010776    2    2   27   27
 -0.05919348218299628    2    2   28    2
 -0.02418085165523548    2    2   28    4
 -0.002866515854746442    2    2   28   10
 0.2117772754414906    2    2   28   17
 -0.1413904766819948    2    2   28   20
 0.7967932559060078    2    2   28   28
 -0.1771748662399553    3    1    1    1
 -0.1774439628867516    3    1    2    2
 0.03240027442881196    3    1    3    1
 0.001329943058526295    3    1    3    3
 0.02228828970577539    3    1    4    2
 -0.009857654454738832    3    1    4    4
 -0.0004757125011636942    3    1    5    5
 -0.0004757125011636947    3    1    6    6
 0.0008002995485760396    3    1    7    1
 0.006588790252181416    3    1    7    3
 -0.004336220843872186    3    1    7    7
 -0.003037937948641328    3    1    8    8
 -0.003037937948641345    3    1    9    9
 0.01462391341151015    3    1   10    2
 -0.003909627059164486    3    1   10    4
 -0.002893839186170638    3    1   10   10
 -0.004100650204726763    3    1   11    1
 -0.002888255831104919    3    1   11    3
 0.001610692326557634    3    1   11    7
 -0.00136570431476327    3    1   11   11
 0.002389200665863986    3    1   12    5
 -0.002654951127738698    3    1   12   12
 0.002389200665863985    3    1   13    6
 -0.002654951127738698    3    1   13   13
 0.0191534201983431    3    1   14    1
 -0.004323075252401465    3    1   14    3
 0.007249657061410239    3    1   14    7
 -0.005485731073885695    3    1   14   11
 -0.007347411217026319    3    1   14   14
 0.004561861326160922    3    1   15    8
 -0.007276937304506243    3    1   15   15
 0.004561861326160931    3    1   16    9
 -0.007276937304506234    3    1   16   16
 0.005714142043976612    3    1   17    2
 0.007256083614891712    3    1   17    4
 0.00279719649008207    3    1   17   10
 -0.008258344132716403    3    1   17   17
 0.002368106397971897    3    1   18   18
 0.002368106397971919    3    1   19   19
 -0.02455487735881732    3    1   20    2
 0.003422864779359876    3    1   20    4
 0.002177766312134434    3    1   20   10
 -0.001206020854006334    3    1   20   17
 -0.002700810617101921    3    1   20   20
 0.006866042545112889    3    1   21    5
 -0.004751900411098146    3    1   21   12
 -0.0007170701417473773    3    1   21   21
 0.006866042545112889    3    1   22    6
 -0.00475190041109815    3    1   22   13
 -0.0007170701417473776    3    1   22   22
 0.000440358251699144    3    1   23   23
 0.0004403582516991444    3    1   24   24
 -7.102359294510307e-05    3    1   25    1
 0.003253381187332501    3    1   25    3
 0.005490845087948827    3    1   25    7
 -0.003242505408455126    3    1   25   11
 -0.00135384055777179    3    1   25   14
 -0.0002090267785585108    3    1   25   25
 0.001039099523661472    3    1   26    8
 0.0007879111302672525    3    1   26   15
 -0.001771256485979034    3    1   26   26
 0.001039099523661471    3    1   27    9
 0.0007879111302672595    3    1   27   16
 -0.00177125648597903    3    1   27   27
 0.02139973793867853    3    1   28    2
 0.001730011215333401    3    1   28    4
 0.0009057588731635113    3    1   28   10
 -0.005790542987429541    3    1   28   17
 -0.0005897353248643204    3    1   28   20
 -0.01044352938481115    3    1   28   28
 -0.1861193665936252    3    2    2    1
 0.03215985580098041    3    2    3    2
 0.02256326627935354    3    2    4    1
 -0.008594260926679895    3    2    4    3
 0.000196365699432625    3    2    7    2
 0.009944520984737274    3    2    7    4
 -0.006538333131418972    3    2    8    6
 -0.006538333131418983    3    2    9    5
 0.01469030766579055    3    2   10    1
 -0.004483399408866715    3    2   10    3
 0.002077065613757298    3    2   10    7
 -0.003596857008931584    3    2   11    2
 -0.003820131381954585    3    2   11    4
 -0.003332172315171832    3    2   11   10
 0.004272424856349849    3    2   12    9
 0.004272424856349839    3    2   13    8
 0.01941800368693026    3    2   14    2
 -0.01030878479444478    3    2   14    4
 -0.005594143485925648    3    2   14   10
 0.007499199618886824    3    2   15    6
 -0.008590160868910035    3    2   15   13
 0.007499199618886818    3    2   16    5
 -0.008590160868910034    3    2   16   12
 0.005142808985734275    3    2   17    1
 -1.636408250880178e-05    3    2   17    3
 -0.009371986355985734    3    2   17    7
 0.006169535187995703    3    2   17   11
 0.008759480124041721    3    2   17   14
 -0.02444602444634012    3    2   20    1
 0.006162979449359569    3    2   20    3
 -0.0001786382114185557    3    2   20    7
 0.000432643885569253    3    2   20   11
 0.005190621613864787    3    2   20   14
 1.104630368884204e-15    3    2   20   20
 0.005959776423320003    3    2   21    9
 -0.00630031280661114    3    2   21   16
 0.005959776423319992    3    2   22    8
 -0.00630031280661115    3    2   22   15
 -0.003337917492131103    3    2   23   19
 -0.003337917492131096    3    2   24   18
 -0.0001728720959364133    3    2   25    2
 -0.001776313241177616    3    2   25    4
 0.0003579181454443504    3    2   25   10
 0.00549610271686342    3    2   25   17
 -0.003137759345165024    3    2   25   20
 -0.001027388917501339    3    2   26    6
 0.002818564146503084    3    2   26   13
 -0.002454333730906458    3    2   26   22
 -0.001027388917501345    3    2   27    5
 0.002818564146503085    3    2   27   12
 -0.002454333730906453    3    2   27   21
 0.02054532656475703    3    2   28    1
 -0.004067007040819475    3    2   28    3
 -0.005769851231251909    3    2   28    7
 0.007509575362322058    3    2   28   11
 0.002805662476185237    3    2   28   14
 0.0002293478342384348    3    2   28   25
 0.7179893284597523    3    3    1    1
 0.7178974475485332    3    3    2    2
 0.001329943058526294    3    3    3    1
 0.6649033362139521    3    3    3    3
 -0.01691377924475215    3    3    4    2
 0.4419699684643988    3    3    4    4
 0.5384313588033178    3    3    5    5
 0.5384313588033178    3    3    6    6
 0.02222160344946262    3    3    7    1
 0.1247346767907538    3    3    7    3
 0.474755549243942    3    3    7    7
 0.425551305643069    3    3    8    8
 0.4255513056430696    3    3    9    9
 -0.00627226019337059    3    3   10    2
 0.083078740031905    3    3   10    4
 0.2852490977212072    3    3   10   10
 -0.01761154404447939    3    3   11    1
 -0.06671107927106419    3    3   11    3
 -0.1261681767323475    3    3   11    7
 0.3947310450834428    3    3   11   11
 -0.1350547410308436    3    3   12    5
 0.4230422618901117    3    3   12   12
 -0.1350547410308439    3    3   13    6
 0.4230422618901121    3    3   13   13
 -0.01488183200405261    3    3   14    1
 0.07118597680879866    3    3   14    3
 -0.03750028901184094    3    3   14    7
 -0.03418792303892591    3    3   14   11
 0.4129356600952875    3    3   14   14
 -0.1373173310608285    3    3   15    8
 0.4345967479349283    3    3   15   15
 -0.1373173310608284    3    3   16    9
 0.4345967479349283    3    3   16   16
 0.02222263457741269    3    3   17    2
 -0.01277230869166541    3    3   17    4
 0.02985838088117661    3    3   17   10
 0.4731767029378903    3    3   17   17
 0.5066587935500158    3    3   18   18
 0.5066587935500158    3    3   19   19
 0.001304343211642032    3    3   20    2
 -0.07633629111016844    3    3   20    4
 -0.09046471742245737    3    3   20   10
 -0.084179898024211    3    3   20   17
 0.454366462067038    3    3   20   20
 0.05590101114803802    3    3   21    5
 -0.02284506781189523    3    3   21   12
 0.5096836235810314    3    3   21   21
 0.05590101114803801    3    3   22    6
 -0.02284506781189539    3    3   22   13
 0.5096836235810317    3    3   22   22
 0.4717199506712258    3    3   23   23
 0.4717199506712259    3    3   24   24
 0.0009972048871627894    3    3   25    1
 0.0376218738697903    3    3   25    3
 0.06147381191425455    3    3   25    7
 -0.07254180756936365    3    3   25   11
 0.0101575191694508    3    3   25   14
 0.4740291822173621    3    3   25   25
 0.04882845175356983    3    3   26    8
 -0.08297587034787675    3    3   26   15
 0.4672307995689241    3    3   26   26
 0.04882845175356996    3    3   27    9
 -0.0829758703478769    3    3   27   16
 0.4672307995689242    3    3   27   27
 0.0281751222686455    3    3   28    2
 -0.007752581237118294    3    3   28    4
 -0.001378289449039661    3    3   28   10
 0.1114618791271627    3    3   28   17
 -0.1108994382263871    3    3   28   20
 0.5974507283294214    3    3   28   28
 -0.1439733695891779    4    1    2    1
 0.02256326627935356    4    1    3    2
 0.02214426021835667    4    1    4    1
 -0.002490854976417956    4    1    4    3
 -0.007833515079684838    4    1    7    2
 -0.003929612321334731    4    1    7    4
 -0.0005374038428571631    4    1    8    6
 -0.000537403842857166    4    1    9    5
 0.01271126495869817    4    1   10    1
 -0.002998157762361595    4    1   10    3
 -0.0001940400345789816    4    1   10    7
 0.004510043456312573    4    1   11    2
 0.0001229352366848907    4    1   11    4
 0.002259267323176986    4    1   11   10
 0.003129176913820291    4    1   12    9
 0.00312917691382029    4    1   13    8
 0.01992656070036653    4    1   14    2
 -0.0009263439843095815    4    1   14    4
 -0.0005428966535788844    4    1   14   10
 0.003220898278318387    4    1   15    6
 -0.003403481570073412    4    1   15   13
 0.003220898278318389    4    1   16    5
 -0.003403481570073408    4    1   16   12
 -0.005867810090865305    4    1   17    1
 -0.004208228412538029    4    1   17    3
 -0.0005437353443289803    4    1   17    7
 0.002634064037934181    4    1   17   11
 -0.003085759218147665    4    1   17   14
 -0.01767242252695829    4    1   20    1
 0.006788681027353721    4    1   20    3
 0.0007437283670779333    4    1   20    7
 -0.002134332466080014    4    1   20   11
 0.0027368589070196    4    1   20   14
 -0.001937106985394597    4    1   21    9
 0.0002861069270968184    4    1   21   16
 -0.001937106985394592    4    1   22    8
 0.0002861069270968217    4    1   22   15
 0.001921894592210742    4    1   23   19
 0.001921894592210744    4    1   24   18
 0.001381856107881387    4    1   25    2
 0.001040518057002258    4    1   25    4
 -0.0004626237658845872    4    1   25   10
 -0.0030877719255681    4    1   25   17
 0.001821424958390729    4    1   25   20
 -0.004317723551548817    4    1   26    6
 0.003401914063257096    4    1   26   13
 0.003918853013142415    4    1   26   22
 -0.004317723551548818    4    1   27    5
 0.003401914063257097    4    1   27   12
 0.003918853013142412    4    1   27   21
 0.0008840523455297084    4    1   28    1
 -0.008672426813642112    4    1   28    3
 -0.00798869015437895    4    1   28    7
 0.006457352031140589    4    1   28   11
 -3.346879122588947e-05    4    1   28   14
 0.001916251016613911    4    1   28   25
 -0.1513240152389626    4    2    1    1
 -0.1515028864692681    4    2    2    2
 0.02228828970577539    4    2    3    1
 -0.01691377924475213    4    2    3    3
 0.02240444920224195    4    2    4    2
 -0.002302982861350937    4    2    4    4
 -0.006841318268636548    4    2    5    5
 -0.006841318268636546    4    2    6    6
 -0.008346945320607422    4    2    7    1
 -0.007336434876396774    4    2    7    3
 -0.003588211771024945    4    2    7    7
 -0.002719451875198951    4    2    8    8
 -0.002719451875198958    4    2    9    9
 0.01278998728470896    4    2   10    2
 -0.002786320961152493    4    2   10    4
 -0.001163644803533181    4    2   10   10
 0.004944237779286468    4    2   11    1
 0.005423627918749526    4    2   11    3
 0.005223286679006717    4    2   11    7
 -0.004953113268021254    4    2   11   11
 0.005859562496868821    4    2   12    5
 -0.006609903848221017    4    2   12   12
 0.005859562496868825    4    2   13    6
 -0.006609903848221026    4    2   13   13
 0.02010615337814901    4    2   14    1
 -0.004746871502400669    4    2   14    3
 -0.001525608080313135    4    2   14    7
 0.001542628882497276    4    2   14   11
 -0.002937313336772565    4    2   14   14
 0.004431646738809817    4    2   15    8
 -0.007002401248274399    4    2   15   15
 0.004431646738809823    4    2   16    9
 -0.007002401248274395    4    2   16   16
 -0.006321189868227419    4    2   17    2
 -0.002422245387737634    4    2   17    4
 -0.001779928500219323    4    2   17   10
 -0.004017222246768128    4    2   17   17
 -0.002979073547026273    4    2   18   18
 -0.002979073547026253    4    2   19   19
 -0.01762519989095086    4    2   20    2
 0.005212207893531298    4    2   20    4
 0.003579652486697646    4    2   20   10
 0.003581840424597961    4    2   20   17
 -0.007591660068526311    4    2   20   20
 -0.002531998702460251    4    2   21    5
 0.000209957746612766    4    2   21   12
 -0.002305342179489341    4    2   21   21
 -0.002531998702460252    4    2   22    6
 0.0002099577466127678    4    2   22   13
 -0.002305342179489343    4    2   22   22
 -0.001423207772387086    4    2   23   23
 -0.001423207772387083    4    2   24   24
 0.001283370829367348    4    2   25    1
 -0.002767529475148549    4    2   25    3
 -0.003924314617158689    4    2   25    7
 0.001954907120835014    4    2   25   11
 0.0004765817749248914    4    2   25   14
 -0.001977883311623054    4    2   25   25
 -0.005147350969722755    4    2   26    8
 0.006117405583930926    4    2   26   15
 -0.002974252872508141    4    2   26   26
 -0.005147350969722766    4    2   27    9
 0.006117405583930923    4    2   27   16
 -0.002974252872508148    4    2   27   27
 0.0002265316937936889    4    2   28    2
 6.789701437422612e-05    4    2   28    4
 -0.002516797864531029    4    2   28   10
 -0.01186044178368135    4    2   28   17
 0.00908032385762475    4    2   28   20
 -0.02153510285044604    4    2   28   28
 0.1542673891765287    4    3    2    1
 -0.008594260926679904    4    3    3    2
 -0.002490854976417966    4    3    4    1
 0.05751720924459499    4    3    4    3
 -0.003877198160807083    4    3    7    2
 -0.08110565092395564    4    3    7    4
 0.07052950634119518    4    3    8    6
 0.07052950634119524    4    3    9    5
 -0.002275995381679846    4    3   10    1
 0.02413588135103512    4    3   10    3
 0.003277371120231024    4    3   10    7
 0.003779834602666296    4    3   11    2
 0.01223756680158667    4    3   11    4
 0.04059954059442528    4    3   11   10
 -0.01214906903480428    4    3   12    9
 -0.01214906903480422    4    3   13    8
 -0.002181203388609866    4    3   14    2
 0.0405550541818477    4    3   14    4
 0.03189091497671872    4    3   14   10
 -0.04691100607047589    4    3   15    6
 0.05888263871541652    4    3   15   13
 -0.0469110060704758    4    3   16    5
 0.0588826387154165    4    3   16   12
 -0.004520569789884383    4    3   17    1
 0.01944596824780306    4    3   17    3
 0.0503046967018415    4    3   17    7
 -0.02080720725937924    4    3   17   11
 -0.05683095783484174    4    3   17   14
 0.005206495022133031    4    3   20    1
 -0.03728746349829252    4    3   20    3
 -0.02150451446063838    4    3   20    7
 0.0008100220745656824    4    3   20   11
 -0.03022001615166666    4    3   20   14
 -0.04958889211503904    4    3   21    9
 0.03031165302581024    4    3   21   16
 -0.04958889211503893    4    3   22    8
 0.03031165302581031    4    3   22   15
 0.07305583271894145    4    3   23   19
 0.07305583271894146    4    3   24   18
 -0.0006791838508358186    4    3   25    2
 -0.003738744437403111    4    3   25    4
 -0.0152966576903824    4    3   25   10
 -0.04763923331087259    4    3   25   17
 0.04037646068569918    4    3   25   20
 0.008314346764733043    4    3   26    6
 -0.02094286748958188    4    3   26   13
 0.06256522543364595    4    3   26   22
 0.008314346764733109    4    3   27    5
 -0.02094286748958186    4    3   27   12
 0.0625652254336459    4    3   27   21
 -0.008721435282716423    4    3   28    1
 0.02251299391567943    4    3   28    3
 0.01660002467963331    4    3   28    7
 -0.03973231767342462    4    3   28   11
 0.005463357144796727    4    3   28   14
 0.04443722672123322    4    3   28   25
 0.5558378063155464    4    4    1    1
 0.5559324188191012    4    4    2    2
 -0.009857654454738825    4    4    3    1
 0.4419699684643988    4    4    3    3
 -0.002302982861350931    4    4    4    2
 0.4473772424374244    4    4    4    4
 0.4182695660684181    4    4    5    5
 0.4182695660684181    4    4    6    6
 -0.005575653658754628    4    4    7    1
 0.005929870424214056    4    4    7    3
 0.4390710496584384    4    4    7    7
 0.3891902075563854    4    4    8    8
 0.3891902075563859    4    4    9    9
 -0.00255366717849541    4    4   10    2
 0.05573971459988603    4    4   10    4
 0.2963732643558752    4    4   10   10
 0.005226586986295151    4    4   11    1
 -0.01076675486592582    4    4   11    3
 -0.06047810142597926    4    4   11    7
 0.3404654519201816    4    4   11   11
 -0.07328610986524124    4    4   12    5
 0.3468601143006727    4    4   12   12
 -0.07328610986524137    4    4   13    6
 0.3468601143006729    4    4   13   13
 -0.001264268466320531    4    4   14    1
 0.04939654263183681    4    4   14    3
 -0.07104576639223824    4    4   14    7
 0.01721528899432358    4    4   14   11
 0.3868113337864715    4    4   14   14
 -0.09603453629371242    4    4   15    8
 0.3805732426505905    4    4   15   15
 -0.09603453629371241    4    4   16    9
 0.3805732426505905    4    4   16   16
 -0.007707837968693836    4    4   17    2
 -0.06521598489690437    4    4   17    4
 -0.0008447575048460986    4    4   17   10
 0.4393933667825994    4    4   17   17
 0.405916362461597    4    4   18   18
 0.405916362461597    4    4   19   19
 0.007034722468363031    4    4   20    2
 -0.02860356071769108    4    4   20    4
 -0.05860192666363562    4    4   20   10
 -0.04206933225171459    4    4   20   17
 0.3769736618812936    4    4   20   20
 -0.02795458265196421    4    4   21    5
 0.004104886281251789    4    4   21   12
 0.4367441994951542    4    4   21   21
 -0.02795458265196422    4    4   22    6
 0.004104886281251672    4    4   22   13
 0.4367441994951544    4    4   22   22
 0.4123321495573864    4    4   23   23
 0.4123321495573866    4    4   24   24
 0.001406863611131631    4    4   25    1
 -0.004914400522808559    4    4   25    3
 -0.01775986079965094    4    4   25    7
 1.260922191483452e-15    4    4   25   10
 -0.03647990763544916    4    4   25   11
 0.02371291628961339    4    4   25   14
 1.641215789297381e-15    4    4   25   20
 0.4219561096575644    4    4   25   25
 -0.01956049268499211    4    4   26    8
 -0.02691888275746823    4    4   26   15
 0.4297767430449299    4    4   26   26
 -0.01956049268499204    4    4   27    9
 -0.02691888275746841    4    4   27   16
 0.4297767430449299    4    4   27   27
 -0.01234727056978551    4    4   28    2
 0.004436260253819035    4    4   28    4
 -0.02208381092309561    4    4   28   10
 0.02847053560290067    4    4   28   17
 -0.02076252734351889    4    4   28   20
 0.4629460828555152    4    4   28   28
 0.01009455916170372    5    1    5    1
 0.01527822527645386    5    1    5    3
 -0.001293619849625294    5    1    7    5
 0.008662856766665634    5    1    9    2
 0.01086374344141585    5    1    9    4
 0.004771083178829114    5    1   10    9
 0.002205674773285316    5    1   11    5
 -0.01131258428732221    5    1   12    1
 -0.008555712983418274    5    1   12    3
 -0.001892237602260612    5    1   12    7
 0.001619975423655304    5    1   12   11
 0.003361730583679308    5    1   14    5
 -0.007911590571489428    5    1   14   12
 -0.01381324240333668    5    1   16    2
 -0.008437193558756204    5    1   16    4
 -0.006048784979856191    5    1   16   10
 0.0033993239895879    5    1   17    9
 0.0002291037843278378    5    1   17   16
 -0.009497889224213681    5    1   18    5
 0.003139244899814471    5    1   18   12
 0.009497889224213678    5    1   19    6
 -0.003139244899814475    5    1   19   13
 -0.006296918782383171    5    1   20    9
 0.01108060545494799    5    1   20   16
 -0.00522413974603116    5    1   21    1
 0.003047869538897747    5    1   21    3
 0.009435440548050162    5    1   21    7
 -0.002103766756710616    5    1   21   11
 -0.005455456016378011    5    1   21   14
 -0.0002425298813097954    5    1   21   18
 0.0002425298813097969    5    1   22   19
 0.007975598685420617    5    1   23    8
 -0.005409079558417853    5    1   23   15
 -0.007975598685420629    5    1   24    9
 0.005409079558417843    5    1   24   16
 -0.004785896719024287    5    1   25    5
 0.003389553247632585    5    1   25   12
 0.004018591418223964    5    1   25   21
 0.002046582109235835    5    1   26   23
 0.00716749155159983    5    1   27    2
 -0.0004842232765934265    5    1   27    4
 0.002428716510331786    5    1   27   10
 0.00774530614417573    5    1   27   17
 -0.007683331306194354    5    1   27   20
 -0.002046582109235842    5    1   27   24
 0.0001373991304788469    5    1   28    9
 -0.00223296734137761    5    1   28   16
 0.004248703089565086    5    1   28   27
 0.009468501712907567    5    2    5    2
 0.00853578373749129    5    2    5    4
 0.008237231873683535    5    2    9    1
 0.00784278220028046    5    2    9    3
 -0.003772304494819016    5    2    9    7
 0.004688837693377562    5    2   10    5
 0.001419107363651582    5    2   11    9
 -0.01070423052847472    5    2   12    2
 -0.004555752830341602    5    2   12    4
 -0.003549907926033196    5    2   12   10
 0.004001559682457556    5    2   14    9