 &FCI NORB= 8,NELEC=  6,MS2=  0
  ORBSYM=1,1,1,1,1,1,1,1,
  ISYM=1 UHF=.FALSE.
 &END
      1.6542332313303  1  1  1  1
    -0.13302442574216  1  2  1  1
    0.011099506555047  1  3  1  1
 -0.00071652243062087  1  4  1  1
     0.11936874670997  1  5  1  1
   0.0036286389834888  1  6  1  1
    0.061785571622932  1  7  1  1
    0.039499947144595  1  8  1  1
    -0.13302442574216  1  1  1  2
    0.017296841779503  1  2  1  2
  -0.0024861867690654  1  3  1  2
  0.00073586139596772  1  4  1  2
   -0.011890603042752  1  5  1  2
 -0.00017980649470668  1  6  1  2
  -0.0075799944728291  1  7  1  2
  -0.0072122199620442  1  8  1  2
    0.011099506555047  1  1  1  3
  -0.0024861867690654  1  2  1  3
   0.0022422843227665  1  3  1  3
  -0.0014108733961617  1  4  1  3
  0.00016536923426265  1  5  1  3
  0.00061150272667506  1  6  1  3
  -0.0023867817197048  1  7  1  3
   0.0027488088898908  1  8  1  3
 -0.00071652243062087  1  1  1  4
  0.00073586139596772  1  2  1  4
  -0.0014108733961617  1  3  1  4
   0.0010477095982427  1  4  1  4
  0.00018697347298115  1  5  1  4
  0.00052711173454438  1  6  1  4
   0.0024003443735695  1  7  1  4
  -0.0014290854074403  1  8  1  4
     0.11936874670997  1  1  1  5
   -0.011890603042752  1  2  1  5
  0.00016536923426265  1  3  1  5
  0.00018697347298115  1  4  1  5
    0.018489591770436  1  5  1  5
  0.00030258800103869  1  6  1  5
   0.0040915633708463  1  7  1  5
  0.00074192447612448  1  8  1  5
   0.0036286389834888  1  1  1  6
 -0.00017980649470668  1  2  1  6
  0.00061150272667506  1  3  1  6
  0.00052711173454438  1  4  1  6
  0.00030258800103869  1  5  1  6
   0.0099411031612935  1  6  1  6
  0.00020604446254695  1  7  1  6
 -2.4717410921424e-06  1  8  1  6
    0.061785571622932  1  1  1  7
  -0.0075799944728291  1  2  1  7
  -0.0023867817197048  1  3  1  7
   0.0024003443735695  1  4  1  7
   0.0040915633708463  1  5  1  7
  0.00020604446254695  1  6  1  7
    0.011808908828612  1  7  1  7
   0.0010240990106632  1  8  1  7
    0.039499947144595  1  1  1  8
  -0.0072122199620442  1  2  1  8
   0.0027488088898908  1  3  1  8
  -0.0014290854074403  1  4  1  8
  0.00074192447612449  1  5  1  8
 -2.4717410921422e-06  1  6  1  8
   0.0010240990106632  1  7  1  8
   0.0063536628077299  1  8  1  8
    -0.13302442574216  2  1  1  1
     0.36368151756504  2  2  1  1
   -0.049350931842084  2  3  1  1
     0.01208721757634  2  4  1  1
   -0.022267366580206  2  5  1  1
   0.0033228106595749  2  6  1  1
   -0.042505831603814  2  7  1  1
   -0.016951983701602  2  8  1  1
    0.017296841779503  2  1  1  2
   0.0018178345344167  2  2  1  2
  -0.0029009462754356  2  3  1  2
   0.0017248431742473  2  4  1  2
   0.0040351239673451  2  5  1  2
  0.00020325979530324  2  6  1  2
  0.00097741779744133  2  7  1  2
   0.0043965821760979  2  8  1  2
  -0.0024861867690654  2  1  1  3
  -0.0048817694677978  2  2  1  3
   0.0058049831424734  2  3  1  3
  -0.0037864262808015  2  4  1  3
  -0.0008519890269971  2  5  1  3
  0.00044919641330602  2  6  1  3
  -0.0011789271937731  2  7  1  3
  -0.0028252499521465  2  8  1  3
  0.00073586139596772  2  1  1  4
   0.0028427328097542  2  2  1  4
  -0.0038524077598133  2  3  1  4
   0.0027046778440176  2  4  1  4
  8.0463436282519e-05  2  5  1  4
    0.000497628123263  2  6  1  4
   0.0010101571627533  2  7  1  4
    0.001625777731535  2  8  1  4
   -0.011890603042752  2  1  1  5
    0.013555651054779  2  2  1  5
  -0.0038007647589084  2  3  1  5
   0.0011549801787113  2  4  1  5
   0.0021317705078888  2  5  1  5
 -9.5458051189457e-05  2  6  1  5
  -0.0044744945872587  2  7  1  5
 -0.00018885130744635  2  8  1  5
 -0.00017980649470668  2  1  1  6
  0.00080762876199853  2  2  1  6
   0.0006193350938562  2  3  1  6
  0.00083195263741754  2  4  1  6
 -0.00028003600009829  2  5  1  6
   0.0083631458088219  2  6  1  6
  -0.0001467591675525  2  7  1  6
 -6.5629299119949e-05  2  8  1  6
  -0.0075799944728291  2  1  1  7
   0.0018185291733461  2  2  1  7
  -0.0064070586710081  2  3  1  7
   0.0050146691645487  2  4  1  7
  -0.0034002440759824  2  5  1  7
  8.4806269217728e-05  2  6  1  7
   0.0038124634311199  2  7  1  7
  0.00074690447693213  2  8  1  7
  -0.0072122199620442  2  1  1  8
    -0.00284152173924  2  2  1  8
   0.0022176743749201  2  3  1  8
  -0.0013459332044567  2  4  1  8
  -0.0018134544791789  2  5  1  8
 -7.3820205544092e-05  2  6  1  8
 -6.7389988493829e-05  2  7  1  8
    0.001638437456571  2  8  1  8
    0.017296841779503  2  1  2  1
   0.0018178345344167  2  2  2  1
  -0.0029009462754356  2  3  2  1
   0.0017248431742473  2  4  2  1
   0.0040351239673451  2  5  2  1
  0.00020325979530324  2  6  2  1
  0.00097741779744133  2  7  2  1
   0.0043965821760979  2  8  2  1
   0.0018178345344167  2  1  2  2
      0.3750030398059  2  2  2  2
   -0.059666571597689  2  3  2  2
    0.012785250331949  2  4  2  2
    0.030283164112034  2  5  2  2
   0.0034707628834821  2  6  2  2
  -0.0058183079186634  2  7  2  2
    0.069366312465616  2  8  2  2
  -0.0029009462754356  2  1  2  3
   -0.059666571597689  2  2  2  3
    0.091463467454332  2  3  2  3
    -0.06039218007542  2  4  2  3
  0.00088312716910261  2  5  2  3
  0.00054004594642593  2  6  2  3
    0.026016413179415  2  7  2  3
   -0.046617274879477  2  8  2  3
   0.0017248431742473  2  1  2  4
    0.012785250331949  2  2  2  4
    -0.06039218007542  2  3  2  4
    0.053738682146292  2  4  2  4
  -0.0063239605453535  2  5  2  4
   0.0036483493727934  2  6  2  4
   -0.021625848449191  2  7  2  4
    0.025061898013707  2  8  2  4
   0.0040351239673451  2  1  2  5
    0.030283164112034  2  2  2  5
  0.00088312716910263  2  3  2  5
  -0.0063239605453535  2  4  2  5
      0.0160409049458  2  5  2  5
 -0.00091669237147962  2  6  2  5
   0.0015992392188233  2  7  2  5
    0.015566996321505  2  8  2  5
  0.00020325979530324  2  1  2  6
   0.0034707628834821  2  2  2  6
  0.00054004594642593  2  3  2  6
   0.0036483493727934  2  4  2  6
 -0.00091669237147962  2  5  2  6
    0.025199583560358  2  6  2  6
  -0.0010596426693425  2  7  2  6
  0.00036716773994004  2  8  2  6
  0.00097741779744132  2  1  2  7
  -0.0058183079186634  2  2  2  7
    0.026016413179415  2  3  2  7
   -0.021625848449191  2  4  2  7
   0.0015992392188233  2  5  2  7
  -0.0010596426693425  2  6  2  7
    0.040763674971888  2  7  2  7
   0.0028726292262619  2  8  2  7
   0.0043965821760979  2  1  2  8
    0.069366312465616  2  2  2  8
   -0.046617274879477  2  3  2  8
    0.025061898013707  2  4  2  8
    0.015566996321505  2  5  2  8
  0.00036716773994004  2  6  2  8
   0.0028726292262619  2  7  2  8
    0.081967947376141  2  8  2  8
    0.011099506555047  3  1  1  1
   -0.049350931842084  3  2  1  1
      0.2470271133492  3  3  1  1
   -0.081202845822123  3  4  1  1
   -0.020050351999807  3  5  1  1
    0.015444820229391  3  6  1  1
   -0.048353414915066  3  7  1  1
   0.0035030855165822  3  8  1  1
  -0.0024861867690654  3  1  1  2
  -0.0029009462754356  3  2  1  2
  0.00050860665049659  3  3  1  2
 -0.00010798734268787  3  4  1  2
  0.00051066183923179  3  5  1  2
 -0.00032806155554971  3  6  1  2
   0.0019807792924386  3  7  1  2
  -0.0037767801118421  3  8  1  2
   0.0022422843227665  3  1  1  3
   0.0058049831424734  3  2  1  3
 -0.00053682854823152  3  3  1  3
 -0.00024320849495174  3  4  1  3
 -0.00078511451403661  3  5  1  3
 -2.7800325188001e-05  3  6  1  3
 -0.00023051240474628  3  7  1  3
   0.0025958451791324  3  8  1  3
  -0.0014108733961617  3  1  1  4
  -0.0038524077598133  3  2  1  4
  0.00014239978240562  3  3  1  4
  0.00041832601789486  3  4  1  4
  0.00048927893340106  3  5  1  4
  4.7745594293303e-05  3  6  1  4
 -8.0039290926705e-05  3  7  1  4
  -0.0014764408755293  3  8  1  4
  0.00016536923426265  3  1  1  5
  -0.0038007647589084  3  2  1  5
   0.0043001915436882  3  3  1  5
   -0.002987228837849  3  4  1  5
  0.00018918239321105  3  5  1  5
   0.0002245767151559  3  6  1  5
  0.00044724315212531  3  7  1  5
  -0.0026787270080746  3  8  1  5
  0.00061150272667506  3  1  1  6
   0.0006193350938562  3  2  1  6
   0.0015781497559839  3  3  1  6
    0.001677709504629  3  4  1  6
 -0.00046829362567116  3  5  1  6
 -0.00024933369221758  3  6  1  6
 -0.00025475542068218  3  7  1  6
 -0.00051437488298742  3  8  1  6
  -0.0023867817197048  3  1  1  7
  -0.0064070586710081  3  2  1  7
  -0.0011958253081754  3  3  1  7
   0.0017721141077322  3  4  1  7
   0.0014518426858052  3  5  1  7
  0.00024400664012751  3  6  1  7
   -0.001442790633305  3  7  1  7
 -3.4441381167393e-05  3  8  1  7
   0.0027488088898908  3  1  1  8
   0.0022176743749201  3  2  1  8
 -0.00012173848373679  3  3  1  8
 -0.00025991026408596  3  4  1  8
  -0.0016990472167847  3  5  1  8
 -5.2707640073465e-05  3  6  1  8
  -0.0009862374557548  3  7  1  8
  0.00083502023642842  3  8  1  8
  -0.0024861867690654  3  1  2  1
  -0.0029009462754356  3  2  2  1
  0.00050860665049659  3  3  2  1
 -0.00010798734268786  3  4  2  1
  0.00051066183923179  3  5  2  1
 -0.00032806155554971  3  6  2  1
   0.0019807792924386  3  7  2  1
  -0.0037767801118421  3  8  2  1
  -0.0048817694677978  3  1  2  2
   -0.059666571597689  3  2  2  2
     0.26105616650793  3  3  2  2
   -0.093596322921973  3  4  2  2
  -0.0053976338221437  3  5  2  2
   0.0067607150244123  3  6  2  2
     0.01344838223369  3  7  2  2
   -0.054634282371481  3  8  2  2
   0.0058049831424734  3  1  2  3
    0.091463467454332  3  2  2  3
    0.019713746023802  3  3  2  3
  -0.0016409667825693  3  4  2  3
    0.016120089077131  3  5  2  3
  -0.0048128331535362  3  6  2  3
    0.037268061524245  3  7  2  3
    0.041942820453318  3  8  2  3
  -0.0037864262808015  3  1  2  4
    -0.06039218007542  3  2  2  4
  -0.0053942864024005  3  3  2  4
    0.054393467382888  3  4  2  4
  -0.0099768679878279  3  5  2  4
  -0.0021378384995393  3  6  2  4
   -0.033293545932919  3  7  2  4
   -0.023690414816695  3  8  2  4
  -0.0008519890269971  3  1  2  5
  0.00088312716910263  3  2  2  5
    0.018697232399709  3  3  2  5
   -0.015394720481105  3  4  2  5
   0.0023802939514238  3  5  2  5
  -0.0012008977201831  3  6  2  5
    0.017927410311329  3  7  2  5
   -0.012519839491445  3  8  2  5
  0.00044919641330602  3  1  2  6
  0.00054004594642593  3  2  2  6
   0.0046652498554622  3  3  2  6
   0.0054155027905437  3  4  2  6
  -0.0014330888489631  3  5  2  6
  -0.0021451703305574  3  6  2  6
  -0.0017244694471785  3  7  2  6
  -0.0022416715473417  3  8  2  6
  -0.0011789271937731  3  1  2  7
    0.026016413179415  3  2  2  7
    0.017834216814751  3  3  2  7
   -0.021730692985585  3  4  2  7
     0.01500670833436  3  5  2  7
  -0.0017823952787936  3  6  2  7
    0.031813456919377  3  7  2  7
    0.010130942952158  3  8  2  7
  -0.0028252499521465  3  1  2  8
   -0.046617274879477  3  2  2  8
     0.03030161043034  3  3  2  8
   -0.018180261514998  3  4  2  8
  -0.0084771221064867  3  5  2  8
 -0.00097334597093721  3  6  2  8
   0.0059978045822612  3  7  2  8
   -0.050263190893279  3  8  2  8
   0.0022422843227665  3  1  3  1
   0.0058049831424734  3  2  3  1
 -0.00053682854823152  3  3  3  1
 -0.00024320849495173  3  4  3  1
 -0.00078511451403661  3  5  3  1
 -2.7800325188001e-05  3  6  3  1
 -0.00023051240474628  3  7  3  1
   0.0025958451791324  3  8  3  1
   0.0058049831424734  3  1  3  2
    0.091463467454332  3  2  3  2
    0.019713746023802  3  3  3  2
  -0.0016409667825693  3  4  3  2
    0.016120089077131  3  5  3  2
  -0.0048128331535362  3  6  3  2
    0.037268061524245  3  7  3  2
    0.041942820453318  3  8  3  2
 -0.00053682854823152  3  1  3  3
    0.019713746023802  3  2  3  3
     0.31270778068903  3  3  3  3
    0.039844804098001  3  4  3  3
     0.01294806173848  3  5  3  3
   -0.012131478170117  3  6  3  3
    0.031688371567381  3  7  3  3
   -0.011408094744342  3  8  3  3
 -0.00024320849495173  3  1  3  4
  -0.0016409667825693  3  2  3  4
    0.039844804098001  3  3  3  4
      0.2145122804888  3  4  3  4
   0.0040788254099421  3  5  3  4
   -0.021970781747396  3  6  3  4
   -0.028638612679594  3  7  3  4
    0.010725793929995  3  8  3  4
 -0.00078511451403661  3  1  3  5
    0.016120089077131  3  2  3  5
     0.01294806173848  3  3  3  5
   0.0040788254099421  3  4  3  5
    0.011829518354654  3  5  3  5
  -0.0026303416628843  3  6  3  5
    0.015234834224021  3  7  3  5
    0.006487166750599  3  8  3  5
 -2.7800325188001e-05  3  1  3  6
  -0.0048128331535362  3  2  3  6
   -0.012131478170117  3  3  3  6
   -0.021970781747396  3  4  3  6
  -0.0026303416628843  3  5  3  6
   0.0081872977610715  3  6  3  6
   -0.003181290709431  3  7  3  6
 -0.00060117358315447  3  8  3  6
 -0.00023051240474628  3  1  3  7
    0.037268061524245  3  2  3  7
    0.031688371567381  3  3  3  7
   -0.028638612679594  3  4  3  7
    0.015234834224021  3  5  3  7
   -0.003181290709431  3  6  3  7
    0.050142715583798  3  7  3  7
   0.0027251956220368  3  8  3  7
   0.0025958451791324  3  1  3  8
    0.041942820453318  3  2  3  8
   -0.011408094744342  3  3  3  8
    0.010725793929995  3  4  3  8
    0.006487166750599  3  5  3  8
 -0.00060117358315448  3  6  3  8
   0.0027251956220368  3  7  3  8
    0.039619524962803  3  8  3  8
 -0.00071652243062087  4  1  1  1
     0.01208721757634  4  2  1  1
   -0.081202845822123  4  3  1  1
     0.19658357463926  4  4  1  1
   0.0020843064255203  4  5  1  1
    0.016480473228387  4  6  1  1
    0.039639741577915  4  7  1  1
  -0.0049368038579982  4  8  1  1
  0.00073586139596772  4  1  1  2
   0.0017248431742473  4  2  1  2
 -0.00010798734268787  4  3  1  2
 -0.00022973517415756  4  4  1  2
 -0.00032761777137711  4  5  1  2
 -0.00030073659753757  4  6  1  2
  -0.0015511295775038  4  7  1  2
   0.0021825018835594  4  8  1  2
  -0.0014108733961617  4  1  1  3
  -0.0037864262808015  4  2  1  3
 -0.00024320849495174  4  3  1  3
  0.00083694785455055  4  4  1  3
  0.00052331532143062  4  5  1  3
  6.8890142640422e-05  4  6  1  3
  1.9046177061149e-06  4  7  1  3
  -0.0014456275193607  4  8  1  3
   0.0010477095982427  4  1  1  4
   0.0027046778440176  4  2  1  4
  0.00041832601789486  4  3  1  4
 -0.00068406651202072  4  4  1  4
 -0.00041796417164032  4  5  1  4
 -4.6783385697669e-05  4  6  1  4
  0.00012740325024836  4  7  1  4
  0.00073035575208117  4  8  1  4
  0.00018697347298115  4  1  1  5
   0.0011549801787113  4  2  1  5
   -0.002987228837849  4  3  1  5
   0.0021121387765622  4  4  1  5
 -0.00019819452527676  4  5  1  5
  0.00028096169652068  4  6  1  5
  1.7139284220481e-05  4  7  1  5
   0.0018019032186513  4  8  1  5
  0.00052711173454438  4  1  1  6
  0.00083195263741754  4  2  1  6
    0.001677709504629  4  3  1  6
   0.0022738689351231  4  4  1  6
 -0.00036191955077868  4  5  1  6
  -0.0004245460398347  4  6  1  6
 -0.00021442243915388  4  7  1  6
 -0.00025066170627629  4  8  1  6
   0.0024003443735695  4  1  1  7
   0.0050146691645487  4  2  1  7
   0.0017721141077322  4  3  1  7
  -0.0020675932182142  4  4  1  7
   -0.001087529899218  4  5  1  7
  -2.228598816075e-05  4  6  1  7
   0.0012036772321201  4  7  1  7
  -0.0002898301604974  4  8  1  7
  -0.0014290854074403  4  1  1  8
  -0.0013459332044567  4  2  1  8
 -0.00025991026408596  4  3  1  8
  0.00011141553250242  4  4  1  8
   0.0011578508350904  4  5  1  8
  5.4787791696011e-05  4  6  1  8
  0.00060617375862944  4  7  1  8
 -0.00064847427835495  4  8  1  8
  0.00073586139596772  4  1  2  1
   0.0017248431742473  4  2  2  1
 -0.00010798734268786  4  3  2  1
 -0.00022973517415757  4  4  2  1
 -0.00032761777137711  4  5  2  1
 -0.00030073659753757  4  6  2  1
  -0.0015511295775038  4  7  2  1
   0.0021825018835594  4  8  2  1
   0.0028427328097542  4  1  2  2
    0.012785250331949  4  2  2  2
   -0.093596322921973  4  3  2  2
     0.20639474892238  4  4  2  2
  -0.0073138820041306  4  5  2  2
   0.0097002119138819  4  6  2  2
   -0.013956187822615  4  7  2  2
     0.02708550389714  4  8  2  2
  -0.0038524077598133  4  1  2  3
    -0.06039218007542  4  2  2  3
  -0.0016409667825693  4  3  2  3
    0.047985174746314  4  4  2  3
  -0.0097628922340061  4  5  2  3
  -0.0036539157838207  4  6  2  3
   -0.035864867203621  4  7  2  3
    -0.02308228786203  4  8  2  3
   0.0027046778440176  4  1  2  4
    0.053738682146292  4  2  2  4
    0.054393467382888  4  3  2  4
  -0.0027236678548923  4  4  2  4
    0.012900354890845  4  5  2  4
  -0.0049108695100936  4  6  2  4
    0.034274749470645  4  7  2  4
    0.015560521127614  4  8  2  4
  8.0463436282518e-05  4  1  2  5
  -0.0063239605453535  4  2  2  5
   -0.015394720481105  4  3  2  5
    0.013719634931336  4  4  2  5
  -0.0026730007711737  4  5  2  5
 -0.00031596834778927  4  6  2  5
    -0.01550017011616  4  7  2  5
   0.0072855728506197  4  8  2  5
    0.000497628123263  4  1  2  6
   0.0036483493727934  4  2  2  6
   0.0054155027905437  4  3  2  6
    0.006728805153513  4  4  2  6
 -0.00047339749762811  4  5  2  6
 -7.9324367519796e-06  4  6  2  6
  0.00033810022001637  4  7  2  6
 -0.00067420741999199  4  8  2  6
   0.0010101571627533  4  1  2  7
   -0.021625848449191  4  2  2  7
   -0.021730692985585  4  3  2  7
    0.019605508485305  4  4  2  7
   -0.012366621469138  4  5  2  7
 -0.00046880051058121  4  6  2  7
   -0.031946678518262  4  7  2  7
  -0.0083135618667082  4  8  2  7
    0.001625777731535  4  1  2  8
    0.025061898013707  4  2  2  8
   -0.018180261514998  4  3  2  8
   0.0086675012766877  4  4  2  8
   0.0044830449525086  4  5  2  8
 -0.00017422976627725  4  6  2  8
   -0.004978160897488  4  7  2  8
    0.026360106272541  4  8  2  8
  -0.0014108733961617  4  1  3  1
  -0.0037864262808015  4  2  3  1
 -0.00024320849495173  4  3  3  1
  0.00083694785455055  4  4  3  1
  0.00052331532143062  4  5  3  1
  6.8890142640422e-05  4  6  3  1
   1.904617706115e-06  4  7  3  1
  -0.0014456275193607  4  8  3  1
  -0.0038524077598133  4  1  3  2
    -0.06039218007542  4  2  3  2
  -0.0016409667825693  4  3  3  2
    0.047985174746314  4  4  3  2
  -0.0097628922340061  4  5  3  2
  -0.0036539157838207  4  6  3  2
   -0.035864867203621  4  7  3  2
    -0.02308228786203  4  8  3  2
  0.00014239978240562  4  1  3  3
  -0.0053942864024006  4  2  3  3
    0.039844804098001  4  3  3  3
     0.33711966478827  4  4  3  3
  0.00054420382430998  4  5  3  3
   -0.014820411384358  4  6  3  3
   -0.025380508710529  4  7  3  3
     0.01012062342319  4  8  3  3
  0.00041832601789486  4  1  3  4
    0.054393467382888  4  2  3  4
      0.2145122804888  4  3  3  4
     0.12574282274331  4  4  3  4
    0.026503816390303  4  5  3  4
    -0.03098423792618  4  6  3  4
    0.038864730337843  4  7  3  4
   0.0064114243475587  4  8  3  4
  0.00048927893340106  4  1  3  5
  -0.0099768679878279  4  2  3  5
   0.0040788254099421  4  3  3  5
    0.021337290475085  4  4  3  5
  -0.0067599947107427  4  5  3  5
  -0.0024636035987415  4  6  3  5
   -0.013616368845223  4  7  3  5
  -0.0031279616433349  4  8  3  5
  4.7745594293303e-05  4  1  3  6
  -0.0021378384995393  4  2  3  6
   -0.021970781747396  4  3  3  6
   -0.023775304831771  4  4  3  6
  -0.0019837287973228  4  5  3  6
   0.0012539067102307  4  6  3  6
  0.00080129909038999  4  7  3  6
 -0.00088622835880763  4  8  3  6
 -8.0039290926706e-05  4  1  3  7
   -0.033293545932919  4  2  3  7
   -0.028638612679594  4  3  3  7
    0.034602870267837  4  4  3  7
   -0.012870730990188  4  5  3  7
 -0.00072927574983983  4  6  3  7
   -0.046506701516114  4  7  3  7
  -0.0027728734821375  4  8  3  7
  -0.0014764408755293  4  1  3  8
   -0.023690414816695  4  2  3  8
    0.010725793929995  4  3  3  8
   0.0058593556366507  4  4  3  8
  -0.0029722613560292  4  5  3  8
  -0.0011867087376548  4  6  3  8
  -0.0038300680036447  4  7  3  8
   -0.021767731394022  4  8  3  8
   0.0010477095982427  4  1  4  1
   0.0027046778440176  4  2  4  1
  0.00041832601789486  4  3  4  1
 -0.00068406651202072  4  4  4  1
 -0.00041796417164032  4  5  4  1
 -4.6783385697669e-05  4  6  4  1
  0.00012740325024836  4  7  4  1
  0.00073035575208117  4  8  4  1
   0.0027046778440176  4  1  4  2
    0.053738682146292  4  2  4  2
    0.054393467382888  4  3  4  2
  -0.0027236678548923  4  4  4  2
    0.012900354890845  4  5  4  2
  -0.0049108695100936  4  6  4  2
    0.034274749470645  4  7  4  2
    0.015560521127614  4  8  4  2
  0.00041832601789486  4  1  4  3
    0.054393467382888  4  2  4  3
      0.2145122804888  4  3  4  3
     0.12574282274331  4  4  4  3
    0.026503816390303  4  5  4  3
    -0.03098423792618  4  6  4  3
    0.038864730337843  4  7  4  3
   0.0064114243475587  4  8  4  3
 -0.00068406651202072  4  1  4  4
  -0.0027236678548923  4  2  4  4
     0.12574282274331  4  3  4  4
      0.4056428534563  4  4  4  4
   0.0071635764789074  4  5  4  4
   -0.028107017626834  4  6  4  4
   -0.023198938258732  4  7  4  4
   0.0055928321553565  4  8  4  4
 -0.00041796417164032  4  1  4  5
    0.012900354890845  4  2  4  5
    0.026503816390303  4  3  4  5
   0.0071635764789074  4  4  4  5
   0.0085741591553019  4  5  4  5
  -0.0030331183259081  4  6  4  5
    0.013461483078271  4  7  4  5
   0.0033419460128136  4  8  4  5
 -4.6783385697669e-05  4  1  4  6
  -0.0049108695100936  4  2  4  6
    -0.03098423792618  4  3  4  6
   -0.028107017626834  4  4  4  6
  -0.0030331183259081  4  5  4  6
   0.0080670272200418  4  6  4  6
 -0.00083278146571518  4  7  4  6
  -0.0015466568118232  4  8  4  6
  0.00012740325024836  4  1  4  7
    0.034274749470645  4  2  4  7
    0.038864730337843  4  3  4  7
   -0.023198938258732  4  4  4  7
    0.013461483078271  4  5  4  7
 -0.00083278146571519  4  6  4  7
     0.04457195999886  4  7  4  7
   0.0043799260543274  4  8  4  7
  0.00073035575208117  4  1  4  8
    0.015560521127614  4  2  4  8
   0.0064114243475587  4  3  4  8
   0.0055928321553565  4  4  4  8
   0.0033419460128136  4  5  4  8
  -0.0015466568118232  4  6  4  8
   0.0043799260543274  4  7  4  8
    0.013302779261767  4  8  4  8
     0.11936874670997  5  1  1  1
   -0.022267366580206  5  2  1  1
   -0.020050351999807  5  3  1  1
   0.0020843064255203  5  4  1  1
     0.39110644887754  5  5  1  1
   0.0011232077493091  5  6  1  1
   -0.011728720327897  5  7  1  1
    -0.01576756511285  5  8  1  1
   -0.011890603042752  5  1  1  2
   0.0040351239673451  5  2  1  2
  0.00051066183923179  5  3  1  2
 -0.00032761777137711  5  4  1  2
   -0.010558210814335  5  5  1  2
 -0.00034124383769185  5  6  1  2
   -0.001446683007586  5  7  1  2
   0.0025311450807272  5  8  1  2
  0.00016536923426265  5  1  1  3
  -0.0008519890269971  5  2  1  3
 -0.00078511451403661  5  3  1  3
  0.00052331532143062  5  4  1  3
   0.0022965469065339  5  5  1  3
 -0.00051483888379733  5  6  1  3
   0.0035539998741744  5  7  1  3
   -0.003250698600828  5  8  1  3
  0.00018697347298115  5  1  1  4
  8.0463436282519e-05  5  2  1  4
  0.00048927893340106  5  3  1  4
 -0.00041796417164032  5  4  1  4
 -0.00044170515937699  5  5  1  4
 -0.00048148494281827  5  6  1  4
  -0.0025815053557613  5  7  1  4
   0.0021661361092219  5  8  1  4
    0.018489591770436  5  1  1  5
   0.0021317705078889  5  2  1  5
  0.00018918239321105  5  3  1  5
 -0.00019819452527676  5  4  1  5
  -0.0044267319082758  5  5  1  5
 -2.1818837993534e-05  5  6  1  5
  0.00023039405676736  5  7  1  5
   0.0015980924190783  5  8  1  5
  0.00030258800103869  5  1  1  6
 -0.00028003600009829  5  2  1  6
 -0.00046829362567116  5  3  1  6
 -0.00036191955077868  5  4  1  6
  0.00033647984952936  5  5  1  6
   -0.008925228225709  5  6  1  6
  4.3569692541333e-05  5  7  1  6
  0.00024644701267175  5  8  1  6
   0.0040915633708463  5  1  1  7
  -0.0034002440759824  5  2  1  7
   0.0014518426858052  5  3  1  7
   -0.001087529899218  5  4  1  7
   0.0071284356039971  5  5  1  7
  0.00012369821926085  5  6  1  7
  -0.0061532956797243  5  7  1  7
   0.0037699189174056  5  8  1  7
  0.00074192447612447  5  1  1  8
  -0.0018134544791789  5  2  1  8
  -0.0016990472167847  5  3  1  8
   0.0011578508350904  5  4  1  8
   0.0069631123046249  5  5  1  8
  0.00023124596368029  5  6  1  8
    0.003200302718232  5  7  1  8
  -0.0028905115888296  5  8  1  8
   -0.011890603042752  5  1  2  1
   0.0040351239673451  5  2  2  1
  0.00051066183923179  5  3  2  1
 -0.00032761777137711  5  4  2  1
   -0.010558210814336  5  5  2  1
 -0.00034124383769185  5  6  2  1
   -0.001446683007586  5  7  2  1
   0.0025311450807272  5  8  2  1
    0.013555651054779  5  1  2  2
    0.030283164112034  5  2  2  2
  -0.0053976338221437  5  3  2  2
  -0.0073138820041306  5  4  2  2
     0.23135037648851  5  5  2  2
  -0.0016633644172697  5  6  2  2
  -0.0049826603094269  5  7  2  2
    0.020851189652256  5  8  2  2
  -0.0038007647589084  5  1  2  3
  0.00088312716910261  5  2  2  3
    0.016120089077131  5  3  2  3
  -0.0097628922340061  5  4  2  3
   -0.013678626136552  5  5  2  3
  -0.0031300538961474  5  6  2  3
    0.033710364041547  5  7  2  3
   -0.021242911862441  5  8  2  3
   0.0011549801787113  5  1  2  4
  -0.0063239605453535  5  2  2  4
  -0.0099768679878279  5  3  2  4
    0.012900354890845  5  4  2  4
 -8.9686856811995e-05  5  5  2  4
   -0.002698408376418  5  6  2  4
   -0.026822492118416  5  7  2  4
    0.014139786618509  5  8  2  4
   0.0021317705078889  5  1  2  5
      0.0160409049458  5  2  2  5
   0.0023802939514238  5  3  2  5
  -0.0026730007711737  5  4  2  5
   -0.020939013180006  5  5  2  5
  0.00037394193834727  5  6  2  5
   0.0066534919896341  5  7  2  5
   0.0022344792969447  5  8  2  5
 -9.5458051189456e-05  5  1  2  6
 -0.00091669237147962  5  2  2  6
  -0.0014330888489631  5  3  2  6
 -0.00047339749762811  5  4  2  6
    0.002440713156955  5  5  2  6
   -0.018547797327781  5  6  2  6
 -0.00043627650542032  5  7  2  6
  0.00075899953298069  5  8  2  6
  -0.0044744945872587  5  1  2  7
   0.0015992392188233  5  2  2  7
     0.01500670833436  5  3  2  7
   -0.012366621469138  5  4  2  7
  -0.0035385165727292  5  5  2  7
 -1.8638413694651e-05  5  6  2  7
   0.0080282220592584  5  7  2  7
   0.0063687422407203  5  8  2  7
 -0.00018885130744635  5  1  2  8
    0.015566996321505  5  2  2  8
  -0.0084771221064867  5  3  2  8
   0.0044830449525086  5  4  2  8
  -0.0016948293429899  5  5  2  8
  0.00031022464857401  5  6  2  8
 -9.0698810136965e-06  5  7  2  8
    0.017842321534264  5  8  2  8
  0.00016536923426265  5  1  3  1
  -0.0008519890269971  5  2  3  1
 -0.00078511451403661  5  3  3  1
  0.00052331532143062  5  4  3  1
   0.0022965469065339  5  5  3  1
 -0.00051483888379733  5  6  3  1
   0.0035539998741744  5  7  3  1
   -0.003250698600828  5  8  3  1
  -0.0038007647589084  5  1  3  2
  0.00088312716910261  5  2  3  2
    0.016120089077131  5  3  3  2
  -0.0097628922340061  5  4  3  2
   -0.013678626136552  5  5  3  2
  -0.0031300538961474  5  6  3  2
    0.033710364041547  5  7  3  2
   -0.021242911862441  5  8  3  2
   0.0043001915436882  5  1  3  3
    0.018697232399709  5  2  3  3
     0.01294806173848  5  3  3  3
  0.00054420382430998  5  4  3  3
      0.1949020792229  5  5  3  3
    -0.01011381895189  5  6  3  3
    0.016782769487892  5  7  3  3
   0.0057329250798435  5  8  3  3
   -0.002987228837849  5  1  3  4
   -0.015394720481105  5  2  3  4
   0.0040788254099421  5  3  3  4
    0.026503816390303  5  4  3  4
   -0.045833067296808  5  5  3  4
   -0.011481583368698  5  6  3  4
   -0.017496365698407  5  7  3  4
  0.00082792556406259  5  8  3  4
  0.00018918239321105  5  1  3  5
   0.0023802939514238  5  2  3  5
    0.011829518354654  5  3  3  5
  -0.0067599947107427  5  4  3  5
   -0.014645617841877  5  5  3  5
   0.0012163088719412  5  6  3  5
  -0.0015910755920442  5  7  3  5
   0.0059384022365286  5  8  3  5
  0.00022457671515589  5  1  3  6
  -0.0012008977201831  5  2  3  6
  -0.0026303416628843  5  3  3  6
  -0.0019837287973228  5  4  3  6
   0.0087821286951773  5  5  3  6
 -0.00041227434768915  5  6  3  6
  -0.0010624938952645  5  7  3  6
 -6.7830714144598e-05  5  8  3  6
   0.0004472431521253  5  1  3  7
    0.017927410311329  5  2  3  7
    0.015234834224021  5  3  3  7
   -0.012870730990188  5  4  3  7
   -0.024895695616508  5  5  3  7
 -0.00042925496334945  5  6  3  7
    0.018715702464335  5  7  3  7
   0.0019219658975154  5  8  3  7
  -0.0026787270080746  5  1  3  8
   -0.012519839491445  5  2  3  8
    0.006487166750599  5  3  3  8
  -0.0029722613560292  5  4  3  8
   0.0095418394897076  5  5  3  8
  0.00093293292686982  5  6  3  8
   0.0082983778103075  5  7  3  8
    -0.01496023083858  5  8  3  8
  0.00018697347298115  5  1  4  1
  8.0463436282519e-05  5  2  4  1
  0.00048927893340106  5  3  4  1
 -0.00041796417164032  5  4  4  1
 -0.00044170515937699  5  5  4  1
 -0.00048148494281827  5  6  4  1
  -0.0025815053557613  5  7  4  1
   0.0021661361092219  5  8  4  1
   0.0011549801787113  5  1  4  2
  -0.0063239605453535  5  2  4  2
  -0.0099768679878279  5  3  4  2
    0.012900354890845  5  4  4  2
 -8.9686856811995e-05  5  5  4  2
   -0.002698408376418  5  6  4  2
   -0.026822492118416  5  7  4  2
    0.014139786618509  5  8  4  2
   -0.002987228837849  5  1  4  3
   -0.015394720481105  5  2  4  3
   0.0040788254099421  5  3  4  3
    0.026503816390303  5  4  4  3
   -0.045833067296808  5  5  4  3
   -0.011481583368698  5  6  4  3
   -0.017496365698407  5  7  4  3
  0.00082792556406259  5  8  4  3
   0.0021121387765622  5  1  4  4
    0.013719634931337  5  2  4  4
    0.021337290475085  5  3  4  4
   0.0071635764789074  5  4  4  4
     0.16991226706203  5  5  4  4
   -0.015043945154291  5  6  4  4
    0.019435157934452  5  7  4  4
   0.0009250381832151  5  8  4  4
 -0.00019819452527676  5  1  4  5
  -0.0026730007711737  5  2  4  5
  -0.0067599947107427  5  3  4  5
   0.0085741591553019  5  4  4  5
  0.00097299294534935  5  5  4  5
   0.0011934822685844  5  6  4  5
  0.00062450327849289  5  7  4  5
    -0.00393053979003  5  8  4  5
  0.00028096169652068  5  1  4  6
 -0.00031596834778928  5  2  4  6
  -0.0024636035987415  5  3  4  6
  -0.0030331183259081  5  4  4  6
    0.009610560022259  5  5  4  6
    0.002519426675051  5  6  4  6
   0.0003008059158591  5  7  4  6